 VARIABLES = X,Y,Z,DU1,DU2,DU3,U1,U2,U3,S11,S22,S33,S12,S13,S23,E11,E22,E33,E12,E23,E13,SMISES
 ZONE, T="0.1000D+01" F=FEPOINT, I=   12 J=    2 ET=BRICK
   0.0000000000E+00   0.0000000000E+00   0.0000000000E+00   0.0000000000E+00   0.0000000000E+00   0.0000000000E+00   0.0000000000E+00   0.0000000000E+00   0.0000000000E+00   0.5000000008E+01   0.4818947868E-12   0.4594442330E-12  -0.1001968241E-15   0.1757222323E-13   0.3872511316E-13   0.5000000008E-01  -0.2495000004E-01  -0.2495000004E-01  -0.6007801574E-17   0.2321957785E-14   0.1053630505E-14   0.5000000008E+01
   0.1050000000E+01   0.0000000000E+00   0.3787306653E-15   0.5000000000E-01   0.0000000000E+00   0.3787306653E-15   0.0000000000E+00   0.0000000000E+00   0.0000000000E+00   0.5000000008E+01   0.1478585360E-12   0.1126660519E-12   0.1901013366E-14   0.4999701334E-14   0.2172321573E-13   0.5000000008E-01  -0.2495000004E-01  -0.2495000004E-01   0.1139847614E-15   0.1302524015E-14   0.2997820920E-15   0.5000000008E+01
   0.1050000000E+01   0.9750500000E+00   0.1031496712E-14   0.5000000000E-01  -0.2495000000E-01   0.1031496712E-14   0.0000000000E+00   0.0000000000E+00   0.0000000000E+00   0.5000000007E+01   0.5211639494E-12   0.4874636563E-12  -0.9829266397E-15  -0.1867550244E-13   0.2094426965E-13   0.5000000007E-01  -0.2495000004E-01  -0.2495000004E-01  -0.5893628131E-16   0.1255818408E-14  -0.1119783126E-14   0.5000000007E+01
   0.0000000000E+00   0.9750500000E+00   0.1157329491E-14   0.0000000000E+00  -0.2495000000E-01   0.1157329491E-14   0.0000000000E+00   0.0000000000E+00   0.0000000000E+00   0.5000000007E+01   0.2832443001E-12   0.2548154060E-12   0.5913278132E-14   0.3626554188E-14   0.3499437442E-13   0.5000000007E-01  -0.2495000004E-01  -0.2495000004E-01   0.3545601568E-15   0.2098262690E-14   0.2174481891E-15   0.5000000007E+01
   0.0000000000E+00   0.0000000000E+00   0.9750500000E+00   0.0000000000E+00   0.0000000000E+00  -0.2495000000E-01   0.0000000000E+00   0.0000000000E+00   0.0000000000E+00   0.5000000007E+01   0.2399368033E-12   0.2174862496E-12  -0.2776207940E-16   0.8322773069E-14   0.3579882986E-13   0.5000000007E-01  -0.2495000004E-01  -0.2495000004E-01  -0.1664614281E-17   0.2146497838E-14   0.4990334732E-15   0.5000000007E+01
   0.1050000000E+01   0.0000000000E+00   0.9750500000E+00   0.5000000000E-01   0.0000000000E+00  -0.2495000000E-01   0.0000000000E+00   0.0000000000E+00   0.0000000000E+00   0.5000000007E+01  -0.3624385128E-12  -0.3976309969E-12   0.1102058165E-14   0.5221177958E-14   0.2209241269E-13   0.5000000007E-01  -0.2495000004E-01  -0.2495000004E-01   0.6607940755E-16   0.1324661065E-14   0.3130618303E-15   0.5000000007E+01
   0.1050000000E+01   0.9750500000E+00   0.9750500000E+00   0.5000000000E-01  -0.2495000000E-01  -0.2495000000E-01   0.0000000000E+00   0.0000000000E+00   0.0000000000E+00   0.5000000007E+01   0.1086690066E-13  -0.2283339249E-13   0.5913316743E-15  -0.1521844972E-13   0.2162547300E-13   0.5000000007E-01  -0.2495000003E-01  -0.2495000003E-01   0.3545624719E-16   0.1296663361E-14  -0.9124982455E-15   0.5000000007E+01
   0.0000000000E+00   0.9750500000E+00   0.9750500000E+00   0.0000000000E+00  -0.2495000000E-01  -0.2495000000E-01   0.0000000000E+00   0.0000000000E+00   0.0000000000E+00   0.5000000007E+01  -0.4703043699E-12  -0.4987332639E-12   0.8672915263E-14  -0.1906428962E-14   0.3165170586E-13   0.5000000007E-01  -0.2495000003E-01  -0.2495000003E-01   0.5200279992E-15   0.1897836283E-14  -0.1143094806E-15   0.5000000007E+01
   0.2100000000E+01   0.0000000000E+00   0.1586014443E-15   0.1000000000E+00   0.0000000000E+00   0.1586014443E-15   0.0000000000E+00   0.0000000000E+00   0.0000000000E+00   0.5000000008E+01   0.2283913186E-13   0.7242795057E-15   0.2350466335E-15  -0.1191385621E-13  -0.6794344970E-14   0.5000000008E-01  -0.2495000004E-01  -0.2495000004E-01   0.1409339614E-16  -0.4073889244E-15  -0.7143548181E-15   0.5000000008E+01
   0.2100000000E+01   0.9750500000E+00  -0.4741775142E-16   0.1000000000E+00  -0.2495000000E-01  -0.4741775142E-16   0.0000000000E+00   0.0000000000E+00   0.0000000000E+00   0.5000000007E+01   0.2750715807E-12   0.2591716490E-12  -0.1251609205E-13  -0.4420927260E-13  -0.4409757215E-14   0.5000000007E-01  -0.2495000003E-01  -0.2495000003E-01  -0.7504648791E-15  -0.2644090426E-15  -0.2650787985E-14   0.5000000007E+01
   0.2100000000E+01   0.0000000000E+00   0.9750500000E+00   0.1000000000E+00   0.0000000000E+00  -0.2495000000E-01   0.0000000000E+00   0.0000000000E+00   0.0000000000E+00   0.5000000007E+01  -0.5852667510E-12  -0.6073816034E-12  -0.3220256603E-15  -0.2240452993E-14  -0.3511043805E-14   0.5000000007E-01  -0.2495000003E-01  -0.2495000003E-01  -0.1930865859E-16  -0.2105221866E-15  -0.1343375614E-15   0.5000000007E+01
   0.2100000000E+01   0.9750500000E+00   0.9750500000E+00   0.1000000000E+00  -0.2495000000E-01  -0.2495000000E-01   0.0000000000E+00   0.0000000000E+00   0.0000000000E+00   0.5000000006E+01   0.1785563843E-12   0.1626564526E-12  -0.8683799162E-14  -0.3230734498E-13  -0.5746358690E-15   0.5000000006E-01  -0.2495000003E-01  -0.2495000003E-01  -0.5206805977E-15  -0.3445516670E-16  -0.1937148405E-14   0.5000000006E+01
     1     2     3     4     5     6     7     8
     2     9    10     3     6    11    12     7
 VARIABLES = X,Y,Z,DU1,DU2,DU3,U1,U2,U3,S11,S22,S33,S12,S13,S23,E11,E22,E33,E12,E23,E13,SMISES
 ZONE, T="0.2000D+01" F=FEPOINT, I=   12 J=    2 ET=BRICK
   0.0000000000E+00   0.0000000000E+00   0.0000000000E+00   0.0000000000E+00   0.0000000000E+00   0.0000000000E+00   0.0000000000E+00   0.0000000000E+00   0.0000000000E+00   0.1000000002E+02  -0.3229702498E-12  -0.2375843143E-12  -0.9450148371E-16   0.1419453179E-14  -0.3303657632E-15   0.1000000002E+00  -0.4990000008E-01  -0.4990000008E-01  -0.5666308963E-17  -0.1980873116E-16   0.8511041264E-16   0.1000000002E+02
   0.1100000000E+01   0.0000000000E+00   0.1980825905E-16   0.5000000000E-01   0.0000000000E+00  -0.3589224063E-15   0.5000000000E-01   0.0000000000E+00   0.3787306653E-15   0.1000000002E+02  -0.2934267552E-12  -0.2113964668E-12   0.3466612444E-15  -0.8582489278E-15   0.2217000741E-16   0.1000000002E+00  -0.4990000008E-01  -0.4990000008E-01   0.2078580822E-16   0.1329313644E-17  -0.5146060571E-16   0.1000000002E+02
   0.1100000000E+01   0.9501000000E+00   0.1820305772E-16   0.5000000000E-01  -0.2495000000E-01  -0.1013293654E-14   0.5000000000E-01  -0.2495000000E-01   0.1031496712E-14   0.1000000001E+02  -0.3300271120E-12  -0.2481551906E-12  -0.2109070522E-15  -0.8344512440E-15   0.4359960464E-16   0.1000000001E+00  -0.4990000007E-01  -0.4990000007E-01  -0.1264598685E-16   0.2614232294E-17  -0.5003369659E-16   0.1000000001E+02
   0.0000000000E+00   0.9501000000E+00  -0.1225182337E-16   0.0000000000E+00  -0.2495000000E-01  -0.1169581315E-14   0.0000000000E+00  -0.2495000000E-01   0.1157329491E-14   0.1000000001E+02  -0.3046700721E-12  -0.2192049531E-12   0.2731351573E-14   0.1388170322E-14   0.4454343982E-15   0.1000000001E+00  -0.4990000007E-01  -0.4990000007E-01   0.1637718403E-15   0.2670824652E-16   0.8323469254E-16   0.1000000001E+02
   0.0000000000E+00   0.0000000000E+00   0.9501000000E+00   0.0000000000E+00   0.0000000000E+00  -0.2495000000E-01   0.0000000000E+00   0.0000000000E+00  -0.2495000000E-01   0.1000000001E+02   0.1693081576E-12   0.2546940931E-12  -0.1822562547E-15  -0.9825810120E-15  -0.1345598290E-15   0.1000000001E+00  -0.4990000007E-01  -0.4990000007E-01  -0.1092808503E-16  -0.8068207349E-17  -0.5891555748E-16   0.1000000001E+02
   0.1100000000E+01   0.0000000000E+00   0.9501000000E+00   0.5000000000E-01   0.0000000000E+00  -0.2495000000E-01   0.5000000000E-01   0.0000000000E+00  -0.2495000000E-01   0.1000000001E+02  -0.9651539054E-13  -0.1448510220E-13  -0.1536008912E-15   0.4199352120E-15  -0.8167916891E-15   0.1000000001E+00  -0.4990000007E-01  -0.4990000007E-01  -0.9209909438E-17  -0.4897482968E-16   0.2517931531E-16   0.1000000001E+02
   0.1100000000E+01   0.9501000000E+00   0.9501000000E+00   0.5000000000E-01  -0.2495000000E-01  -0.2495000000E-01   0.5000000000E-01  -0.2495000000E-01  -0.2495000000E-01   0.1000000001E+02  -0.1331157474E-12  -0.5124382602E-13  -0.2239162776E-14   0.4629252856E-15   0.3336067910E-15   0.1000000001E+00  -0.4990000007E-01  -0.4990000007E-01  -0.1342602000E-15   0.2000306319E-16   0.2775700012E-16   0.1000000001E+02
   0.0000000000E+00   0.9501000000E+00   0.9501000000E+00   0.0000000000E+00  -0.2495000000E-01  -0.2495000000E-01   0.0000000000E+00  -0.2495000000E-01  -0.2495000000E-01   0.1000000001E+02   0.1876083352E-12   0.2730734542E-12   0.2553850604E-14  -0.1335051131E-14   0.4335282521E-16   0.1000000001E+00  -0.4990000007E-01  -0.4990000007E-01   0.1531288822E-15   0.2599435400E-17  -0.8004966581E-16   0.1000000001E+02
   0.2200000000E+01   0.0000000000E+00  -0.4158431334E-16   0.1000000000E+00   0.0000000000E+00  -0.2001857576E-15   0.1000000000E+00   0.0000000000E+00   0.1586014443E-15   0.1000000002E+02  -0.9325232362E-13  -0.2875900403E-14  -0.3034534399E-15  -0.1077226705E-14  -0.2753828538E-15   0.1000000002E+00  -0.4990000008E-01  -0.4990000008E-01  -0.1819506825E-16  -0.1651195591E-16  -0.6459051324E-16   0.1000000002E+02
   0.2200000000E+01   0.9501000000E+00  -0.5301522580E-16   0.1000000000E+00  -0.2495000000E-01  -0.5597474378E-17   0.1000000000E+00  -0.2495000000E-01  -0.4741775142E-16   0.1000000001E+02   0.1616363172E-12   0.2531156240E-12  -0.5663093643E-14  -0.4870335362E-14  -0.1824874445E-15   0.1000000001E+00  -0.4990000007E-01  -0.4990000007E-01  -0.3395590948E-15  -0.1094194717E-16  -0.2920253083E-15   0.1000000001E+02
   0.2200000000E+01   0.0000000000E+00   0.9501000000E+00   0.1000000000E+00   0.0000000000E+00  -0.2495000000E-01   0.1000000000E+00   0.0000000000E+00  -0.2495000000E-01   0.1000000001E+02  -0.1917080017E-12  -0.1013315785E-12   0.1425352618E-15   0.4262096041E-14   0.2317908482E-15   0.1000000001E+00  -0.4990000007E-01  -0.4990000007E-01   0.8546414299E-17   0.1389817926E-16   0.2555552786E-15   0.1000000001E+02
   0.2200000000E+01   0.9501000000E+00   0.9501000000E+00   0.1000000000E+00  -0.2495000000E-01  -0.2495000000E-01   0.1000000000E+00  -0.2495000000E-01  -0.2495000000E-01   0.1000000001E+02   0.6318063910E-13   0.1546599458E-12  -0.5063964236E-14   0.2106378429E-14   0.8127880831E-15   0.1000000001E+00  -0.4990000006E-01  -0.4990000006E-01  -0.3036352956E-15   0.4873477346E-16   0.1262984506E-15   0.1000000001E+02
     1     2     3     4     5     6     7     8
     2     9    10     3     6    11    12     7
 VARIABLES = X,Y,Z,DU1,DU2,DU3,U1,U2,U3,S11,S22,S33,S12,S13,S23,E11,E22,E33,E12,E23,E13,SMISES
 ZONE, T="0.3000D+01" F=FEPOINT, I=   12 J=    2 ET=BRICK
   0.0000000000E+00   0.0000000000E+00   0.0000000000E+00   0.0000000000E+00   0.0000000000E+00   0.0000000000E+00   0.0000000000E+00   0.0000000000E+00   0.0000000000E+00   0.1500000002E+02   0.1028412060E-12   0.1177880459E-12  -0.7869049437E-16   0.7462776095E-15  -0.4305027434E-15   0.1500000002E+00  -0.7485000012E-01  -0.7485000012E-01  -0.4718282042E-17  -0.2581294450E-16   0.4474680547E-16   0.1500000002E+02
   0.1150000000E+01   0.0000000000E+00   0.5861446921E-17   0.5000000000E-01   0.0000000000E+00  -0.1394681213E-16   0.1000000000E+00   0.0000000000E+00   0.1980825905E-16   0.1500000002E+02   0.1796661918E-12   0.1957049289E-12   0.1058301991E-14  -0.1024997778E-14   0.4239252803E-16   0.1500000002E+00  -0.7485000012E-01  -0.7485000012E-01   0.6345578739E-16   0.2541855981E-17  -0.6145886680E-16   0.1500000002E+02
   0.1150000000E+01   0.9251500000E+00   0.4172293305E-17   0.5000000000E-01  -0.2495000000E-01  -0.1403076442E-16   0.1000000000E+00  -0.4990000000E-01   0.1820305772E-16   0.1500000002E+02  -0.9365396752E-13  -0.7866595661E-13   0.1749292682E-14  -0.1929544275E-14  -0.6242586363E-16   0.1500000002E+00  -0.7485000011E-01  -0.7485000011E-01   0.1048875892E-15  -0.3743054783E-17  -0.1156954747E-15   0.1500000002E+02
   0.0000000000E+00   0.9251500000E+00  -0.1585806116E-16   0.0000000000E+00  -0.2495000000E-01  -0.3606237794E-17   0.0000000000E+00  -0.4990000000E-01  -0.1225182337E-16   0.1500000002E+02  -0.3605239812E-12  -0.3475868222E-12   0.9083728898E-17   0.6386432387E-15   0.6785123195E-15   0.1500000002E+00  -0.7485000011E-01  -0.7485000011E-01   0.5446603848E-18   0.4068359868E-16   0.3829304859E-16   0.1500000002E+02
   0.0000000000E+00   0.0000000000E+00   0.9251500000E+00   0.0000000000E+00   0.0000000000E+00  -0.2495000000E-01   0.0000000000E+00   0.0000000000E+00  -0.4990000000E-01   0.1500000002E+02   0.6047757603E-12   0.6197226001E-12   0.9269733094E-16   0.6763790391E-15  -0.9639020056E-15   0.1500000002E+00  -0.7485000011E-01  -0.7485000011E-01   0.5558131963E-17  -0.5779556425E-16   0.4055568718E-16   0.1500000002E+02
   0.1150000000E+01   0.0000000000E+00   0.9251500000E+00   0.5000000000E-01   0.0000000000E+00  -0.2495000000E-01   0.1000000000E+00   0.0000000000E+00  -0.4990000000E-01   0.1500000002E+02   0.1075916428E-12   0.1236303799E-12  -0.7387281995E-15   0.5823914046E-15  -0.2708961364E-15   0.1500000002E+00  -0.7485000011E-01  -0.7485000011E-01  -0.4429414284E-16  -0.1624293234E-16   0.3492018862E-16   0.1500000002E+02
   0.1150000000E+01   0.9251500000E+00   0.9251500000E+00   0.5000000000E-01  -0.2495000000E-01  -0.2495000000E-01   0.1000000000E+00  -0.4990000000E-01  -0.4990000000E-01   0.1500000002E+02  -0.1657285165E-12  -0.1507405056E-12  -0.1569533592E-14  -0.2309498635E-14  -0.9737165921E-15   0.1500000002E+00  -0.7485000010E-01  -0.7485000010E-01  -0.9410923420E-16  -0.5838404686E-16  -0.1384775381E-15   0.1500000002E+02
   0.0000000000E+00   0.9251500000E+00   0.9251500000E+00   0.0000000000E+00  -0.2495000000E-01  -0.2495000000E-01   0.0000000000E+00  -0.4990000000E-01  -0.4990000000E-01   0.1500000002E+02   0.1414105730E-12   0.1543477320E-12  -0.1506472121E-14   0.1833594528E-14   0.1018421921E-14   0.1500000002E+00  -0.7485000010E-01  -0.7485000010E-01  -0.9032806837E-16   0.6106457837E-16   0.1099423279E-15   0.1500000002E+02
   0.2300000000E+01   0.0000000000E+00   0.2284523398E-17   0.1000000000E+00   0.0000000000E+00   0.4386883674E-16   0.2000000000E+00   0.0000000000E+00  -0.4158431334E-16   0.1500000002E+02  -0.4342982390E-12  -0.4192690571E-12   0.1254239163E-15   0.2111333570E-14   0.5913584998E-15   0.1500000002E+00  -0.7485000011E-01  -0.7485000011E-01   0.7520418020E-17   0.3545785565E-16   0.1265955608E-15   0.1500000002E+02
   0.2300000000E+01   0.9251500000E+00   0.6563141777E-17   0.1000000000E+00  -0.2495000000E-01   0.5957836758E-16   0.2000000000E+00  -0.4990000000E-01  -0.5301522580E-16   0.1500000002E+02   0.1755387611E-12   0.1931407063E-12   0.3800781608E-15   0.7391098163E-15  -0.9034676971E-15   0.1500000002E+00  -0.7485000010E-01  -0.7485000010E-01   0.2278948652E-16  -0.5417192312E-16   0.4431702458E-16   0.1500000002E+02
   0.2300000000E+01   0.0000000000E+00   0.9251500000E+00   0.1000000000E+00   0.0000000000E+00  -0.2495000000E-01   0.2000000000E+00   0.0000000000E+00  -0.4990000000E-01   0.1500000002E+02  -0.3982609660E-12  -0.3832317841E-12  -0.3398760233E-15  -0.2635422544E-15   0.5897516598E-15   0.1500000002E+00  -0.7485000010E-01  -0.7485000010E-01  -0.2037896636E-16   0.3536150952E-16  -0.1580199358E-16   0.1500000002E+02
   0.2300000000E+01   0.9251500000E+00   0.9251500000E+00   0.1000000000E+00  -0.2495000000E-01  -0.2495000000E-01   0.2000000000E+00  -0.4990000000E-01  -0.4990000000E-01   0.1500000002E+02   0.2115760341E-12   0.2291779793E-12  -0.1371962060E-16   0.3272083249E-14   0.1761059365E-14   0.1500000002E+00  -0.7485000010E-01  -0.7485000010E-01  -0.8226284512E-18   0.1055931195E-15   0.1961941116E-15   0.1500000002E+02
     1     2     3     4     5     6     7     8
     2     9    10     3     6    11    12     7
 VARIABLES = X,Y,Z,DU1,DU2,DU3,U1,U2,U3,S11,S22,S33,S12,S13,S23,E11,E22,E33,E12,E23,E13,SMISES
 ZONE, T="0.4000D+01" F=FEPOINT, I=   12 J=    2 ET=BRICK
   0.0000000000E+00   0.0000000000E+00   0.0000000000E+00   0.0000000000E+00   0.0000000000E+00   0.0000000000E+00   0.0000000000E+00   0.0000000000E+00   0.0000000000E+00   0.2000000003E+02   0.4869260396E-12   0.3445141736E-12   0.1941793934E-16  -0.1131796845E-14  -0.4095503598E-15   0.2000000003E+00  -0.9980000016E-01  -0.9980000016E-01   0.1164299643E-17  -0.2455663957E-16  -0.6786253885E-16   0.2000000003E+02
   0.1200000000E+01   0.0000000000E+00  -0.9128510759E-17   0.5000000000E-01   0.0000000000E+00  -0.1498995768E-16   0.1500000000E+00   0.0000000000E+00   0.5861446921E-17   0.2000000003E+02  -0.2997136150E-12  -0.4418816591E-12   0.1388516490E-15  -0.3090691160E-15  -0.6288358005E-16   0.2000000003E+00  -0.9980000015E-01  -0.9980000015E-01   0.8325544872E-17  -0.3770499460E-17  -0.1853178420E-16   0.2000000003E+02
   0.1200000000E+01   0.9002000000E+00  -0.1187999775E-16   0.5000000000E-01  -0.2495000000E-01  -0.1605229105E-16   0.1500000000E+00  -0.7485000000E-01   0.4172293305E-17   0.2000000003E+02   0.2382582122E-12   0.9609016812E-13   0.6994988121E-15  -0.9249109996E-15   0.2239191211E-15   0.2000000003E+00  -0.9980000014E-01  -0.9980000014E-01   0.4194194878E-16   0.1342619050E-16  -0.5545766353E-16   0.2000000003E+02
   0.0000000000E+00   0.9002000000E+00  -0.1046459242E-16   0.0000000000E+00  -0.2495000000E-01   0.5393468738E-17   0.0000000000E+00  -0.7485000000E-01  -0.1585806116E-16   0.2000000003E+02   0.2179401374E-12   0.7552827149E-13  -0.2037812677E-15   0.5551992561E-16   0.2262192484E-15   0.2000000003E+00  -0.9980000015E-01  -0.9980000015E-01  -0.1221872481E-16   0.1356410614E-16   0.3328974739E-17   0.2000000003E+02
   0.0000000000E+00   0.0000000000E+00   0.9002000000E+00   0.0000000000E+00   0.0000000000E+00  -0.2495000000E-01   0.0000000000E+00   0.0000000000E+00  -0.7485000000E-01   0.2000000003E+02  -0.3991750741E-12  -0.5415869400E-12  -0.1885552688E-15   0.1819395075E-14   0.1569876302E-15   0.2000000003E+00  -0.9980000015E-01  -0.9980000015E-01  -0.1130577392E-16   0.9412978309E-17   0.1090909287E-15   0.2000000003E+02
   0.1200000000E+01   0.0000000000E+00   0.9002000000E+00   0.5000000000E-01   0.0000000000E+00  -0.2495000000E-01   0.1500000000E+00   0.0000000000E+00  -0.7485000000E-01   0.2000000003E+02   0.4134684757E-13  -0.1008211965E-12   0.1024735371E-14  -0.1577665078E-14  -0.7794596680E-15   0.2000000003E+00  -0.9980000014E-01  -0.9980000014E-01   0.6144313284E-16  -0.4673640169E-16  -0.9459679806E-16   0.2000000003E+02
   0.1200000000E+01   0.9002000000E+00   0.9002000000E+00   0.5000000000E-01  -0.2495000000E-01  -0.2495000000E-01   0.1500000000E+00  -0.7485000000E-01  -0.7485000000E-01   0.2000000003E+02  -0.1028022504E-12  -0.2449702944E-12   0.5864634517E-15  -0.8401424263E-17  -0.9385655301E-16   0.2000000003E+00  -0.9980000013E-01  -0.9980000013E-01   0.3516434857E-16  -0.5627638918E-17  -0.5037493988E-18   0.2000000003E+02
   0.0000000000E+00   0.9002000000E+00   0.9002000000E+00   0.0000000000E+00  -0.2495000000E-01  -0.2495000000E-01   0.0000000000E+00  -0.7485000000E-01  -0.7485000000E-01   0.2000000003E+02  -0.3271005282E-12  -0.4695123941E-12  -0.9107799803E-15   0.5845464318E-15   0.7088041075E-15   0.2000000003E+00  -0.9980000013E-01  -0.9980000013E-01  -0.5461036762E-16   0.4249989428E-16   0.3504940405E-16   0.2000000003E+02
   0.2400000000E+01   0.0000000000E+00   0.1741594604E-16   0.1000000000E+00   0.0000000000E+00   0.1513142264E-16   0.3000000000E+00   0.0000000000E+00   0.2284523398E-17   0.2000000003E+02  -0.6988763167E-12  -0.8423389090E-12  -0.1461969756E-15   0.2346403728E-14  -0.7660906396E-15   0.2000000003E+00  -0.9980000015E-01  -0.9980000015E-01  -0.8765970657E-17  -0.4593479475E-16   0.1406903675E-15   0.2000000003E+02
   0.2400000000E+01   0.9002000000E+00  -0.1035622060E-17   0.1000000000E+00  -0.2495000000E-01  -0.7598763837E-17   0.3000000000E+00  -0.7485000000E-01   0.6563141777E-17   0.2000000003E+02   0.6460532398E-12   0.5025906475E-12   0.1100709286E-14   0.1236461520E-14  -0.4429256300E-15   0.2000000003E+00  -0.9980000014E-01  -0.9980000014E-01   0.6599852876E-16  -0.2655782077E-16   0.7413823276E-16   0.2000000003E+02
   0.2400000000E+01   0.0000000000E+00   0.9002000000E+00   0.1000000000E+00   0.0000000000E+00  -0.2495000000E-01   0.3000000000E+00   0.0000000000E+00  -0.7485000000E-01   0.2000000003E+02   0.8693457220E-12   0.7258831298E-12  -0.8678643039E-15   0.7654673425E-16   0.1047965318E-14   0.2000000003E+00  -0.9980000014E-01  -0.9980000014E-01  -0.5203714366E-16   0.6283600044E-16   0.4589742186E-17   0.2000000003E+02
   0.2400000000E+01   0.9002000000E+00   0.9002000000E+00   0.1000000000E+00  -0.2495000000E-01  -0.2495000000E-01   0.3000000000E+00  -0.7485000000E-01  -0.7485000000E-01   0.2000000003E+02   0.5089729802E-12   0.3655103879E-12   0.9848723608E-15  -0.2283762122E-14   0.1764106431E-14   0.2000000003E+00  -0.9980000013E-01  -0.9980000013E-01   0.5905294675E-16   0.1057758216E-15  -0.1369343768E-15   0.2000000003E+02
     1     2     3     4     5     6     7     8
     2     9    10     3     6    11    12     7
 VARIABLES = X,Y,Z,DU1,DU2,DU3,U1,U2,U3,S11,S22,S33,S12,S13,S23,E11,E22,E33,E12,E23,E13,SMISES
 ZONE, T="0.5000D+01" F=FEPOINT, I=   12 J=    2 ET=BRICK
   0.0000000000E+00   0.0000000000E+00   0.0000000000E+00   0.0000000000E+00   0.0000000000E+00   0.0000000000E+00   0.0000000000E+00   0.0000000000E+00   0.0000000000E+00   0.2500000004E+02  -0.2127974429E-12   0.4344875481E-13  -0.4446258681E-15   0.8269894014E-14  -0.1663379061E-14   0.2500000004E+00  -0.1247500002E+00  -0.1247500002E+00  -0.2665976705E-16  -0.9973620850E-16   0.4958628451E-15   0.2500000004E+02
   0.1250000000E+01   0.0000000000E+00   0.2448339962E-15   0.5000000000E-01   0.0000000000E+00   0.2539625069E-15   0.2000000000E+00   0.0000000000E+00  -0.9128510759E-17   0.2500000004E+02  -0.1431761930E-11  -0.1551271916E-11   0.9422070153E-15   0.8788319985E-14  -0.9710792249E-15   0.2500000004E+00  -0.1247500002E+00  -0.1247500002E+00   0.5649473264E-16  -0.5822591033E-16   0.5269476663E-15   0.2500000004E+02
   0.1250000000E+01   0.8752500000E+00   0.1959893671E-15   0.5000000000E-01  -0.2495000000E-01   0.2078693648E-15   0.2000000000E+00  -0.9980000000E-01  -0.1187999775E-16   0.2500000004E+02   0.3327188111E-12   0.2149394918E-12   0.1605648560E-13   0.3545781748E-14  -0.1661568844E-14   0.2500000004E+00  -0.1247500002E+00  -0.1247500002E+00   0.9627468765E-15  -0.9962766790E-16   0.2126050736E-15   0.2500000004E+02
   0.0000000000E+00   0.8752500000E+00  -0.2928711165E-16   0.0000000000E+00  -0.2495000000E-01  -0.1882251922E-16   0.0000000000E+00  -0.9980000000E-01  -0.1046459242E-16   0.2500000004E+02   0.3699430160E-12   0.6276314356E-12   0.1372473261E-13   0.7058594278E-14   0.2235442368E-15   0.2500000004E+00  -0.1247500002E+00  -0.1247500002E+00   0.8229349672E-15   0.1340371244E-16   0.4232333129E-15   0.2500000004E+02
   0.0000000000E+00   0.0000000000E+00   0.8752500000E+00   0.0000000000E+00   0.0000000000E+00  -0.2495000000E-01   0.0000000000E+00   0.0000000000E+00  -0.9980000000E-01   0.2500000004E+02   0.3251743613E-12   0.6007328528E-12   0.6691806976E-15  -0.7355674390E-14   0.1217427714E-15   0.2500000004E+00  -0.1247500002E+00  -0.1247500002E+00   0.4012407463E-16   0.7299696574E-17  -0.4410462364E-15   0.2500000004E+02
   0.1250000000E+01   0.0000000000E+00   0.8752500000E+00   0.5000000000E-01   0.0000000000E+00  -0.2495000000E-01   0.2000000000E+00   0.0000000000E+00  -0.9980000000E-01   0.2500000004E+02   0.2207781160E-12  -0.4367036967E-12  -0.5710543168E-14  -0.4981654665E-14  -0.3243022342E-15   0.2500000004E+00  -0.1247500002E+00  -0.1247500002E+00  -0.3424041683E-15  -0.1944516196E-16  -0.2987000137E-15   0.2500000004E+02
   0.1250000000E+01   0.8752500000E+00   0.8752500000E+00   0.5000000000E-01  -0.2495000000E-01  -0.2495000000E-01   0.2000000000E+00  -0.9980000000E-01  -0.9980000000E-01   0.2500000003E+02  -0.7432248433E-12  -0.1398975990E-11   0.1013131636E-13  -0.9869862497E-14   0.2621097766E-14   0.2500000003E+00  -0.1247500002E+00  -0.1247500002E+00   0.6074737288E-15   0.1571610221E-15  -0.5917969553E-15   0.2500000003E+02
   0.0000000000E+00   0.8752500000E+00   0.8752500000E+00   0.0000000000E+00  -0.2495000000E-01  -0.2495000000E-01   0.0000000000E+00  -0.9980000000E-01  -0.9980000000E-01   0.2500000003E+02  -0.1820568880E-11  -0.1543568167E-11   0.1340574461E-13  -0.5288483735E-14  -0.7196282338E-15   0.2500000003E+00  -0.1247500002E+00  -0.1247500002E+00   0.8038084468E-15  -0.4314890890E-16  -0.3170974848E-15   0.2500000003E+02
   0.2500000000E+01   0.0000000000E+00   0.4433376784E-15   0.1000000000E+00   0.0000000000E+00   0.4259217323E-15   0.4000000000E+00   0.0000000000E+00   0.1741594604E-16   0.2500000004E+02  -0.8986745475E-12  -0.8961318236E-12   0.7072584381E-16   0.5956793071E-14   0.1079231877E-14   0.2500000004E+00  -0.1247500002E+00  -0.1247500002E+00   0.4240721595E-17   0.6471074336E-16   0.3571693125E-15   0.2500000004E+02
   0.2500000000E+01   0.8752500000E+00   0.4834940030E-15   0.1000000000E+00  -0.2495000000E-01   0.4845296250E-15   0.4000000000E+00  -0.9980000000E-01  -0.1035622060E-17   0.2500000003E+02   0.2046880342E-11   0.2051442177E-11   0.1509295792E-13   0.9336249055E-14   0.1394362577E-14   0.2500000003E+00  -0.1247500002E+00  -0.1247500002E+00   0.9049737570E-15   0.8360598011E-16   0.5598014934E-15   0.2500000003E+02
   0.2500000000E+01   0.0000000000E+00   0.8752500000E+00   0.1000000000E+00   0.0000000000E+00  -0.2495000000E-01   0.4000000000E+00   0.0000000000E+00  -0.9980000000E-01   0.2500000003E+02  -0.8600499599E-12  -0.5885213339E-12  -0.9777397779E-15  -0.3893225983E-14   0.9302563760E-15   0.2500000003E+00  -0.1247500002E+00  -0.1247500002E+00  -0.5862527708E-16   0.5577817230E-16  -0.2334378299E-15   0.2500000003E+02
   0.2500000000E+01   0.8752500000E+00   0.8752500000E+00   0.1000000000E+00  -0.2495000000E-01  -0.2495000000E-01   0.4000000000E+00  -0.9980000000E-01  -0.9980000000E-01   0.2500000003E+02  -0.6429787707E-12  -0.3694310340E-12   0.1362515251E-13  -0.6691559120E-14  -0.7810711763E-15   0.2500000003E+00  -0.1247500002E+00  -0.1247500002E+00   0.8169641442E-15  -0.4683302773E-16  -0.4012258848E-15   0.2500000003E+02
     1     2     3     4     5     6     7     8
     2     9    10     3     6    11    12     7
 VARIABLES = X,Y,Z,DU1,DU2,DU3,U1,U2,U3,S11,S22,S33,S12,S13,S23,E11,E22,E33,E12,E23,E13,SMISES
 ZONE, T="0.6000D+01" F=FEPOINT, I=   12 J=    2 ET=BRICK
   0.0000000000E+00   0.0000000000E+00   0.0000000000E+00   0.0000000000E+00   0.0000000000E+00   0.0000000000E+00   0.0000000000E+00   0.0000000000E+00   0.0000000000E+00   0.3000000005E+02   0.2667416517E-12   0.2848151421E-12  -0.2609419747E-15   0.3356262002E-13  -0.2389675074E-15   0.3000000005E+00  -0.1497000002E+00  -0.1497000002E+00  -0.1564608080E-16  -0.1432849174E-16   0.2012414696E-14   0.3000000005E+02
   0.1300000000E+01   0.0000000000E+00   0.6251085762E-15   0.5000000000E-01   0.0000000000E+00   0.3802745801E-15   0.2500000000E+00   0.0000000000E+00   0.2448339962E-15   0.3000000005E+02   0.2296387989E-12   0.1622784526E-12   0.2845541763E-14  -0.3547340777E-14  -0.2889024592E-15   0.3000000005E+00  -0.1497000002E+00  -0.1497000002E+00   0.1706186841E-15  -0.1732259146E-16  -0.2126985530E-15   0.3000000005E+02
   0.1300000000E+01   0.8503000000E+00   0.6183452509E-15   0.5000000000E-01  -0.2495000000E-01   0.4223558838E-15   0.2500000000E+00  -0.1247500000E+00   0.1959893671E-15   0.3000000004E+02  -0.1880569087E-12  -0.2515147510E-12  -0.3704525522E-15  -0.1298470082E-14  -0.9205841450E-15   0.3000000004E+00  -0.1497000002E+00  -0.1497000002E+00  -0.2221233503E-16  -0.5519822533E-16  -0.7785626612E-16   0.3000000004E+02
   0.0000000000E+00   0.8503000000E+00  -0.2968197534E-16   0.0000000000E+00  -0.2495000000E-01  -0.3948636974E-18   0.0000000000E+00  -0.1247500000E+00  -0.2928711165E-16   0.3000000004E+02  -0.3893050787E-12  -0.3731828403E-12   0.6548797475E-13   0.3125122610E-13   0.1881270848E-14   0.3000000004E+00  -0.1497000002E+00  -0.1497000002E+00   0.3926658966E-14   0.1128010000E-15   0.1873823517E-14   0.3000000004E+02
   0.0000000000E+00   0.0000000000E+00   0.8503000000E+00   0.0000000000E+00   0.0000000000E+00  -0.2495000000E-01   0.0000000000E+00   0.0000000000E+00  -0.1247500000E+00   0.3000000004E+02  -0.1097500199E-11  -0.1079426708E-11  -0.9313946825E-16  -0.3398012537E-13  -0.2169909136E-14   0.3000000004E+00  -0.1497000002E+00  -0.1497000002E+00  -0.5584642516E-17  -0.1301077518E-15  -0.2037448317E-14   0.3000000004E+02
   0.1300000000E+01   0.0000000000E+00   0.8503000000E+00   0.5000000000E-01   0.0000000000E+00  -0.2495000000E-01   0.2500000000E+00   0.0000000000E+00  -0.1247500000E+00   0.3000000004E+02  -0.1134603051E-11  -0.1201963398E-11   0.3628640654E-15   0.4359460900E-14  -0.6006831236E-16   0.3000000004E+00  -0.1497000002E+00  -0.1497000002E+00   0.2175732936E-16  -0.3601696009E-17   0.2613932756E-15   0.3000000004E+02
   0.1300000000E+01   0.8503000000E+00   0.8503000000E+00   0.5000000000E-01  -0.2495000000E-01  -0.2495000000E-01   0.2500000000E+00  -0.1247500000E+00  -0.1247500000E+00   0.3000000004E+02   0.1176184941E-11   0.1112727099E-11  -0.3431467194E-14  -0.2405459239E-14  -0.4954757602E-15   0.3000000004E+00  -0.1497000002E+00  -0.1497000002E+00  -0.2057507730E-15  -0.2970872658E-16  -0.1442313360E-15   0.3000000004E+02
   0.0000000000E+00   0.8503000000E+00   0.8503000000E+00   0.0000000000E+00  -0.2495000000E-01  -0.2495000000E-01   0.0000000000E+00  -0.1247500000E+00  -0.1247500000E+00   0.3000000004E+02   0.9749367715E-12   0.9910590099E-12   0.5868196937E-13  -0.2720041511E-13   0.2144026827E-14   0.3000000004E+00  -0.1497000002E+00  -0.1497000002E+00   0.3518570883E-14   0.1285558485E-15  -0.1630936890E-14   0.3000000004E+02