 VARIABLES = X,Y,Z,DU1,DU2,DU3,U1,U2,U3,S11,S22,S33,S12,S13,S23,E11,E22,E33,E12,E23,E13,SMISES
 ZONE, T="0.1000D+01" F=FEPOINT, I=   12 J=    2 ET=BRICK
   0.0000000000E+00   0.0000000000E+00   0.0000000000E+00   0.0000000000E+00   0.0000000000E+00   0.0000000000E+00   0.0000000000E+00   0.0000000000E+00   0.0000000000E+00   0.5000000008E+01  -0.2321190990E-12  -0.5535011414E-12  -0.3514311116E-16  -0.6129042614E-13   0.1024305655E-12   0.5000000008E-01  -0.2495000004E-01  -0.2495000004E-01  -0.2107180945E-17   0.6141736710E-14  -0.3674973951E-14   0.5000000008E+01
   0.1050000000E+01   0.0000000000E+00  -0.5327024087E-15   0.5000000000E-01   0.0000000000E+00  -0.5327024087E-15   0.0000000000E+00   0.0000000000E+00   0.0000000000E+00   0.5000000008E+01   0.2237711572E-12  -0.4881914803E-13   0.1091679517E-12   0.1244588168E-12   0.1519182300E-12   0.5000000008E-01  -0.2495000004E-01  -0.2495000004E-01   0.6545710384E-14   0.9109017072E-14   0.7462550655E-14   0.5000000008E+01
   0.1050000000E+01   0.9750500000E+00   0.4020236055E-14   0.5000000000E-01  -0.2495000000E-01   0.4020236055E-14   0.0000000000E+00   0.0000000000E+00   0.0000000000E+00   0.5000000007E+01  -0.8575389328E-13  -0.4348771656E-12  -0.2641282224E-13  -0.4398464176E-13  -0.8447957302E-13   0.5000000007E-01  -0.2495000004E-01  -0.2495000004E-01  -0.1583712822E-14  -0.5065395198E-14  -0.2637319120E-14   0.5000000007E+01
   0.0000000000E+00   0.9750500000E+00   0.3068934199E-14   0.0000000000E+00  -0.2495000000E-01   0.3068934199E-14   0.0000000000E+00   0.0000000000E+00   0.0000000000E+00   0.5000000007E+01   0.3714500416E-12   0.2508530435E-12   0.2820289702E-13   0.1006342794E-12  -0.1324283266E-12   0.5000000007E-01  -0.2495000004E-01  -0.2495000004E-01   0.1691045706E-14  -0.7940402462E-14   0.6034031390E-14   0.5000000007E+01
   0.0000000000E+00   0.0000000000E+00   0.9750500000E+00   0.0000000000E+00   0.0000000000E+00  -0.2495000000E-01   0.0000000000E+00   0.0000000000E+00   0.0000000000E+00   0.5000000007E+01   0.1054084504E-12   0.1454829556E-12  -0.1233684713E-15  -0.1088581488E-13   0.2421352598E-12   0.5000000007E-01  -0.2495000004E-01  -0.2495000004E-01  -0.7397173542E-17   0.1451843018E-13  -0.6527134603E-15   0.5000000007E+01
   0.1050000000E+01   0.0000000000E+00   0.9750500000E+00   0.5000000000E-01   0.0000000000E+00  -0.2495000000E-01   0.0000000000E+00   0.0000000000E+00   0.0000000000E+00   0.5000000007E+01   0.2745812009E-12   0.4417535981E-12   0.1162385525E-12   0.5688180663E-13   0.1214162158E-12   0.5000000007E-01  -0.2495000004E-01  -0.2495000004E-01   0.6969663607E-14   0.7280116302E-14   0.3410633126E-14   0.5000000007E+01
   0.1050000000E+01   0.9750500000E+00   0.9750500000E+00   0.5000000000E-01  -0.2495000000E-01  -0.2495000000E-01   0.0000000000E+00   0.0000000000E+00   0.0000000000E+00   0.5000000007E+01  -0.1448756062E-12  -0.5474802609E-13   0.1434868394E-12  -0.6954021176E-13  -0.1144335192E-12   0.5000000007E-01  -0.2495000003E-01  -0.2495000003E-01   0.8603470890E-14  -0.6861433809E-14  -0.4169631097E-14   0.5000000007E+01
   0.0000000000E+00   0.9750500000E+00   0.9750500000E+00   0.0000000000E+00  -0.2495000000E-01  -0.2495000000E-01   0.0000000000E+00   0.0000000000E+00   0.0000000000E+00   0.5000000007E+01  -0.1408762382E-12   0.2944705128E-12  -0.5529548135E-13  -0.1253887792E-12   0.7502463330E-14   0.5000000007E-01  -0.2495000003E-01  -0.2495000003E-01  -0.3315517062E-14   0.4498477012E-15  -0.7518311203E-14   0.5000000007E+01
   0.2100000000E+01   0.0000000000E+00   0.4162797315E-14   0.1000000000E+00   0.0000000000E+00   0.4162797315E-14   0.0000000000E+00   0.0000000000E+00   0.0000000000E+00   0.5000000008E+01  -0.4366960832E-12  -0.6277340264E-12  -0.2241732290E-15   0.2006179242E-12  -0.2486004923E-12   0.5000000008E-01  -0.2495000004E-01  -0.2495000004E-01  -0.1344142681E-16  -0.1490608552E-13   0.1202905073E-13   0.5000000008E+01
   0.2100000000E+01   0.9750500000E+00  -0.3290584087E-14   0.1000000000E+00  -0.2495000000E-01  -0.3290584087E-14   0.0000000000E+00   0.0000000000E+00   0.0000000000E+00   0.5000000007E+01   0.2482376315E-14   0.3669247440E-12  -0.3004581100E-12  -0.3121508169E-12  -0.1562096401E-12   0.5000000007E-01  -0.2495000003E-01  -0.2495000003E-01  -0.1801546827E-13  -0.9366330023E-14  -0.1871656298E-13   0.5000000007E+01
   0.2100000000E+01   0.0000000000E+00   0.9750500000E+00   0.1000000000E+00   0.0000000000E+00  -0.2495000000E-01   0.0000000000E+00   0.0000000000E+00   0.0000000000E+00   0.5000000007E+01  -0.4106490270E-13  -0.2747765435E-12  -0.4557567709E-15   0.1325333745E-13  -0.2363121984E-13   0.5000000007E-01  -0.2495000003E-01  -0.2495000003E-01  -0.2732717598E-16  -0.1416927942E-14   0.7946701134E-15   0.5000000007E+01
   0.2100000000E+01   0.9750500000E+00   0.9750500000E+00   0.1000000000E+00  -0.2495000000E-01  -0.2495000000E-01   0.0000000000E+00   0.0000000000E+00   0.0000000000E+00   0.5000000006E+01   0.4419849766E-12   0.5695407448E-12   0.1111972995E-12  -0.1368650445E-12   0.6865251691E-13   0.5000000006E-01  -0.2495000003E-01  -0.2495000003E-01   0.6667390081E-14   0.4116404914E-14  -0.8206428069E-14   0.5000000006E+01
     1     2     3     4     5     6     7     8
     2     9    10     3     6    11    12     7
 VARIABLES = X,Y,Z,DU1,DU2,DU3,U1,U2,U3,S11,S22,S33,S12,S13,S23,E11,E22,E33,E12,E23,E13,SMISES
 ZONE, T="0.2000D+01" F=FEPOINT, I=   12 J=    2 ET=BRICK
   0.0000000000E+00   0.0000000000E+00   0.0000000000E+00   0.0000000000E+00   0.0000000000E+00   0.0000000000E+00   0.0000000000E+00   0.0000000000E+00   0.0000000000E+00   0.1000000002E+02  -0.7792042669E-12  -0.8730345245E-12  -0.7563634150E-16  -0.1696633255E-14   0.6442816309E-15   0.1000000002E+00  -0.4990000008E-01  -0.4990000008E-01  -0.4535155037E-17   0.3863112659E-16  -0.1017301300E-15   0.1000000002E+02
   0.1100000000E+01   0.0000000000E+00   0.2620213494E-16   0.5000000000E-01   0.0000000000E+00   0.5589045436E-15   0.5000000000E-01   0.0000000000E+00  -0.5327024087E-15   0.1000000002E+02  -0.1924786221E-13   0.2141265936E-12   0.1294546121E-13  -0.7468322803E-14   0.8741317322E-14   0.1000000002E+00  -0.4990000008E-01  -0.4990000008E-01   0.7762098540E-15   0.5241293866E-15  -0.4478006353E-15   0.1000000002E+02
   0.1100000000E+01   0.9501000000E+00   0.2854943777E-15   0.5000000000E-01  -0.2495000000E-01  -0.3734741677E-14   0.5000000000E-01  -0.2495000000E-01   0.4020236055E-14   0.1000000001E+02  -0.2446377067E-12  -0.3928545263E-12  -0.2187932865E-14   0.1176802009E-13   0.1358932728E-14   0.1000000001E+00  -0.4990000007E-01  -0.4990000007E-01  -0.1311884546E-15   0.8148160639E-16   0.7056104849E-15   0.1000000001E+02
   0.0000000000E+00   0.9501000000E+00   0.1934587816E-16   0.0000000000E+00  -0.2495000000E-01  -0.3049588321E-14   0.0000000000E+00  -0.2495000000E-01   0.3068934199E-14   0.1000000001E+02   0.1014749862E-11   0.9494133540E-12  -0.1186833833E-13   0.1219837017E-13   0.1284776280E-14   0.1000000001E+00  -0.4990000007E-01  -0.4990000007E-01  -0.7116255664E-15   0.7703518573E-16   0.7314142755E-15   0.1000000001E+02
   0.0000000000E+00   0.0000000000E+00   0.9501000000E+00   0.0000000000E+00   0.0000000000E+00  -0.2495000000E-01   0.0000000000E+00   0.0000000000E+00  -0.2495000000E-01   0.1000000001E+02   0.3102792011E-12   0.2785045220E-12  -0.1037328464E-15   0.2722395751E-14   0.4937560053E-14   0.1000000001E+00  -0.4990000007E-01  -0.4990000007E-01  -0.6219821469E-17   0.2960561008E-15   0.1632348493E-15   0.1000000001E+02
   0.1100000000E+01   0.0000000000E+00   0.9501000000E+00   0.5000000000E-01   0.0000000000E+00  -0.2495000000E-01   0.5000000000E-01   0.0000000000E+00  -0.2495000000E-01   0.1000000001E+02   0.3386766024E-12   0.3073063775E-12   0.3571988020E-13  -0.1687179731E-13  -0.2162659195E-14   0.1000000001E+00  -0.4990000007E-01  -0.4990000007E-01   0.2141764017E-14  -0.1296730453E-15  -0.1011632967E-14   0.1000000001E+02
   0.1100000000E+01   0.9501000000E+00   0.9501000000E+00   0.5000000000E-01  -0.2495000000E-01  -0.2495000000E-01   0.5000000000E-01  -0.2495000000E-01  -0.2495000000E-01   0.1000000001E+02   0.6744907592E-13   0.1205290317E-12   0.1507834916E-13   0.8563433951E-14  -0.9096462052E-14   0.1000000001E+00  -0.4990000007E-01  -0.4990000007E-01   0.9040978159E-15  -0.5454238646E-15   0.5134634997E-15   0.1000000001E+02
   0.0000000000E+00   0.9501000000E+00   0.9501000000E+00   0.0000000000E+00  -0.2495000000E-01  -0.2495000000E-01   0.0000000000E+00  -0.2495000000E-01  -0.2495000000E-01   0.1000000001E+02  -0.3766480179E-12  -0.2308763379E-12  -0.2099140059E-13  -0.9519420413E-14   0.5462826593E-14   0.1000000001E+00  -0.4990000007E-01  -0.4990000007E-01  -0.1258644379E-14   0.3275510825E-15  -0.5707844480E-15   0.1000000001E+02
   0.2200000000E+01   0.0000000000E+00   0.3701776377E-15   0.1000000000E+00   0.0000000000E+00  -0.3792619677E-14   0.1000000000E+00   0.0000000000E+00   0.4162797315E-14   0.1000000002E+02  -0.8910709687E-13  -0.2878431672E-12  -0.1890797150E-15   0.1562261575E-13  -0.8182154968E-14   0.1000000002E+00  -0.4990000008E-01  -0.4990000008E-01  -0.1133721971E-16  -0.4906020119E-15   0.9367320406E-15   0.1000000002E+02
   0.2200000000E+01   0.9501000000E+00   0.1272814037E-15   0.1000000000E+00  -0.2495000000E-01   0.3417865490E-14   0.1000000000E+00  -0.2495000000E-01  -0.3290584087E-14   0.1000000001E+02  -0.1406776327E-12  -0.1378893228E-12  -0.1982569055E-13  -0.9023011986E-14  -0.1685335724E-13   0.1000000001E+00  -0.4990000007E-01  -0.4990000007E-01  -0.1188748406E-14  -0.1010527300E-14  -0.5410197987E-15   0.1000000001E+02
   0.2200000000E+01   0.0000000000E+00   0.9501000000E+00   0.1000000000E+00   0.0000000000E+00  -0.2495000000E-01   0.1000000000E+00   0.0000000000E+00  -0.2495000000E-01   0.1000000001E+02  -0.5652416724E-12  -0.4262708387E-12  -0.8207681700E-15  -0.1152019205E-13   0.1213720005E-13   0.1000000001E+00  -0.4990000007E-01  -0.4990000007E-01  -0.4921325947E-16   0.7277465152E-15  -0.6907507151E-15   0.1000000001E+02
   0.2200000000E+01   0.9501000000E+00   0.9501000000E+00   0.1000000000E+00  -0.2495000000E-01  -0.2495000000E-01   0.1000000000E+00  -0.2495000000E-01  -0.2495000000E-01   0.1000000001E+02   0.5915026529E-12   0.5329832705E-12  -0.1903380802E-13   0.7555218370E-14   0.3313319087E-14   0.1000000001E+00  -0.4990000006E-01  -0.4990000006E-01  -0.1141267129E-14   0.1986666125E-15   0.4530108935E-15   0.1000000001E+02
     1     2     3     4     5     6     7     8
     2     9    10     3     6    11    12     7
 VARIABLES = X,Y,Z,DU1,DU2,DU3,U1,U2,U3,S11,S22,S33,S12,S13,S23,E11,E22,E33,E12,E23,E13,SMISES
 ZONE, T="0.3000D+01" F=FEPOINT, I=   12 J=    2 ET=BRICK
   0.0000000000E+00   0.0000000000E+00   0.0000000000E+00   0.0000000000E+00   0.0000000000E+00   0.0000000000E+00   0.0000000000E+00   0.0000000000E+00   0.0000000000E+00   0.1500000002E+02  -0.1458003909E-12  -0.2575773679E-12  -0.1901570780E-16  -0.1494744202E-14   0.3283899759E-13   0.1500000002E+00  -0.7485000012E-01  -0.7485000012E-01  -0.1140181840E-17   0.1969026295E-14  -0.8962486234E-16   0.1500000002E+02
   0.1150000000E+01   0.0000000000E+00   0.1884554315E-16   0.5000000000E-01   0.0000000000E+00  -0.7356591784E-17   0.1000000000E+00   0.0000000000E+00   0.2620213494E-16   0.1500000002E+02   0.1754634944E-12   0.4911497927E-12   0.3066761981E-13   0.4670988234E-13  -0.6073615850E-14   0.1500000002E+00  -0.7485000012E-01  -0.7485000012E-01   0.1838830484E-14  -0.3641740064E-15   0.2800724545E-14   0.1500000002E+02
   0.1150000000E+01   0.9251500000E+00  -0.1523898354E-15   0.5000000000E-01  -0.2495000000E-01  -0.4378842131E-15   0.1000000000E+00  -0.4990000000E-01   0.2854943777E-15   0.1500000002E+02  -0.3293619515E-12  -0.3879956984E-12  -0.1089258321E-13  -0.1918633414E-13   0.1803765250E-13   0.1500000002E+00  -0.7485000011E-01  -0.7485000011E-01  -0.6531192895E-15   0.1081537644E-14  -0.1150412595E-14   0.1500000002E+02
   0.0000000000E+00   0.9251500000E+00   0.9748819335E-15   0.0000000000E+00  -0.2495000000E-01   0.9555360554E-15   0.0000000000E+00  -0.4990000000E-01   0.1934587816E-16   0.1500000002E+02  -0.8073401658E-13  -0.8541628966E-13  -0.6783667740E-13  -0.3827581889E-13  -0.1931435859E-13   0.1500000002E+00  -0.7485000011E-01  -0.7485000011E-01  -0.4067487177E-14  -0.1158088941E-14  -0.2295018101E-14   0.1500000002E+02
   0.0000000000E+00   0.0000000000E+00   0.9251500000E+00   0.0000000000E+00   0.0000000000E+00  -0.2495000000E-01   0.0000000000E+00   0.0000000000E+00  -0.4990000000E-01   0.1500000002E+02  -0.6321983882E-12  -0.5671521984E-12  -0.3006453362E-15  -0.9262002606E-15  -0.2242721189E-14   0.1500000002E+00  -0.7485000011E-01  -0.7485000011E-01  -0.1802669436E-16  -0.1344735625E-15  -0.5553496763E-16   0.1500000002E+02
   0.1150000000E+01   0.0000000000E+00   0.9251500000E+00   0.5000000000E-01   0.0000000000E+00  -0.2495000000E-01   0.1000000000E+00   0.0000000000E+00  -0.4990000000E-01   0.1500000002E+02  -0.1500133899E-12  -0.2177931653E-12   0.5374335803E-14   0.2699432971E-13  -0.1202167779E-13   0.1500000002E+00  -0.7485000011E-01  -0.7485000011E-01   0.3222451748E-15  -0.7208198001E-15   0.1618580010E-14   0.1500000002E+02
   0.1150000000E+01   0.9251500000E+00   0.9251500000E+00   0.5000000000E-01  -0.2495000000E-01  -0.2495000000E-01   0.1000000000E+00  -0.4990000000E-01  -0.4990000000E-01   0.1500000002E+02  -0.1031360680E-11  -0.1008111866E-11   0.1454024464E-13   0.4184371944E-14   0.1118108399E-13   0.1500000002E+00  -0.7485000010E-01  -0.7485000010E-01   0.8718330686E-15   0.6704177963E-15   0.2508949418E-15   0.1500000002E+02
   0.0000000000E+00   0.9251500000E+00   0.9251500000E+00   0.0000000000E+00  -0.2495000000E-01  -0.2495000000E-01   0.0000000000E+00  -0.4990000000E-01  -0.4990000000E-01   0.1500000002E+02   0.1332860381E-11   0.1297306981E-11   0.1900741167E-13  -0.1824281818E-13  -0.5435793447E-13   0.1500000002E+00  -0.7485000010E-01  -0.7485000010E-01   0.1139684403E-14  -0.3259301751E-14  -0.1093839378E-14   0.1500000002E+02
   0.2300000000E+01   0.0000000000E+00   0.1994684384E-15   0.1000000000E+00   0.0000000000E+00  -0.1707091993E-15   0.2000000000E+00   0.0000000000E+00   0.3701776377E-15   0.1500000002E+02  -0.1735489586E-11  -0.1778068375E-11  -0.5426082856E-15   0.6061643695E-14  -0.4457243288E-13   0.1500000002E+00  -0.7485000011E-01  -0.7485000011E-01  -0.3253479280E-16  -0.2672563076E-14   0.3634561559E-15   0.1500000002E+02
   0.2300000000E+01   0.9251500000E+00  -0.1133743406E-14   0.1000000000E+00  -0.2495000000E-01  -0.1261024810E-14   0.2000000000E+00  -0.4990000000E-01   0.1272814037E-15   0.1500000002E+02  -0.4439918609E-13   0.1596211716E-13  -0.1631778134E-13  -0.2989253163E-13   0.8354488938E-14   0.1500000002E+00  -0.7485000010E-01  -0.7485000010E-01  -0.9784141692E-15   0.5009351567E-15  -0.1792356197E-14   0.1500000002E+02
   0.2300000000E+01   0.0000000000E+00   0.9251500000E+00   0.1000000000E+00   0.0000000000E+00  -0.2495000000E-01   0.2000000000E+00   0.0000000000E+00  -0.4990000000E-01   0.1500000002E+02  -0.1158284987E-11  -0.1181281268E-11  -0.6322655721E-15  -0.2661006062E-13   0.2024115962E-14   0.1500000002E+00  -0.7485000010E-01  -0.7485000010E-01  -0.3791064370E-16   0.1213659931E-15  -0.1595539235E-14   0.1500000002E+02
   0.2300000000E+01   0.9251500000E+00   0.9251500000E+00   0.1000000000E+00  -0.2495000000E-01  -0.2495000000E-01   0.2000000000E+00  -0.4990000000E-01  -0.4990000000E-01   0.1500000002E+02   0.1443210688E-11   0.1485270050E-11   0.1489443020E-14  -0.8559199504E-14   0.5471194696E-13   0.1500000002E+00  -0.7485000010E-01  -0.7485000010E-01   0.8930700349E-16   0.3280528340E-14  -0.5132096023E-15   0.1500000002E+02
     1     2     3     4     5     6     7     8
     2     9    10     3     6    11    12     7
 VARIABLES = X,Y,Z,DU1,DU2,DU3,U1,U2,U3,S11,S22,S33,S12,S13,S23,E11,E22,E33,E12,E23,E13,SMISES
 ZONE, T="0.4000D+01" F=FEPOINT, I=   12 J=    2 ET=BRICK
   0.0000000000E+00   0.0000000000E+00   0.0000000000E+00   0.0000000000E+00   0.0000000000E+00   0.0000000000E+00   0.0000000000E+00   0.0000000000E+00   0.0000000000E+00   0.2000000003E+02   0.3017056910E-12   0.2228584015E-12  -0.5369731265E-16  -0.3630237803E-14   0.3070501969E-13   0.2000000003E+00  -0.9980000016E-01  -0.9980000016E-01  -0.3219690867E-17   0.1841072981E-14  -0.2176690586E-15   0.2000000003E+02
   0.1200000000E+01   0.0000000000E+00   0.1762294566E-15   0.5000000000E-01   0.0000000000E+00   0.1573839134E-15   0.1500000000E+00   0.0000000000E+00   0.1884554315E-16   0.2000000003E+02  -0.8553755370E-12  -0.9251195152E-12  -0.2133087046E-13   0.5910811622E-14   0.3391479366E-13   0.2000000003E+00  -0.9980000015E-01  -0.9980000015E-01  -0.1278998993E-14   0.2033531028E-14   0.3544122649E-15   0.2000000003E+02
   0.1200000000E+01   0.9002000000E+00   0.1188801351E-14   0.5000000000E-01  -0.2495000000E-01   0.1341191187E-14   0.1500000000E+00  -0.7485000000E-01  -0.1523898354E-15   0.2000000003E+02   0.5957676396E-12   0.4141813267E-12  -0.2595329863E-13  -0.2799292164E-13  -0.1244703305E-13   0.2000000003E+00  -0.9980000014E-01  -0.9980000014E-01  -0.1556159786E-14  -0.7463241015E-15  -0.1678455581E-14   0.2000000003E+02
   0.0000000000E+00   0.9002000000E+00   0.9077084361E-15   0.0000000000E+00  -0.2495000000E-01  -0.6717349738E-16   0.0000000000E+00  -0.7485000000E-01   0.9748819335E-15   0.2000000003E+02   0.4069268262E-12   0.2804689364E-12   0.6933921252E-13   0.9730172370E-14   0.1677457009E-13   0.2000000003E+00  -0.9980000015E-01  -0.9980000015E-01   0.4157579183E-14   0.1005803223E-14   0.5834211353E-15   0.2000000003E+02
   0.0000000000E+00   0.0000000000E+00   0.9002000000E+00   0.0000000000E+00   0.0000000000E+00  -0.2495000000E-01   0.0000000000E+00   0.0000000000E+00  -0.7485000000E-01   0.2000000003E+02   0.6753088587E-12   0.6123682447E-12  -0.3549530652E-15   0.1551042842E-13  -0.1289676570E-13   0.2000000003E+00  -0.9980000015E-01  -0.9980000015E-01  -0.2128298579E-16  -0.7732900712E-15   0.9300052881E-15   0.2000000003E+02
   0.1200000000E+01   0.0000000000E+00   0.9002000000E+00   0.5000000000E-01   0.0000000000E+00  -0.2495000000E-01   0.1500000000E+00   0.0000000000E+00  -0.7485000000E-01   0.2000000003E+02   0.3337039852E-12   0.2228993878E-12  -0.3837001732E-13  -0.1695305575E-13   0.3184023924E-14   0.2000000003E+00  -0.9980000014E-01  -0.9980000014E-01  -0.2300666238E-14   0.1909140745E-15  -0.1016505223E-14   0.2000000003E+02
   0.1200000000E+01   0.9002000000E+00   0.9002000000E+00   0.5000000000E-01  -0.2495000000E-01  -0.2495000000E-01   0.1500000000E+00  -0.7485000000E-01  -0.7485000000E-01   0.2000000003E+02   0.2980075589E-12   0.4167421995E-12  -0.3956807521E-13  -0.1865454532E-13  -0.4205139983E-13   0.2000000003E+00  -0.9980000013E-01  -0.9980000013E-01  -0.2372501789E-14  -0.2521401934E-14  -0.1118526537E-14   0.2000000003E+02
   0.0000000000E+00   0.9002000000E+00   0.9002000000E+00   0.0000000000E+00  -0.2495000000E-01  -0.2495000000E-01   0.0000000000E+00  -0.7485000000E-01  -0.7485000000E-01   0.2000000003E+02  -0.4447506542E-12  -0.4897359663E-12   0.1708320207E-13   0.3312590145E-13  -0.2559035205E-13   0.2000000003E+00  -0.9980000013E-01  -0.9980000013E-01   0.1024308796E-14  -0.1534397509E-14   0.1986229051E-14   0.2000000003E+02
   0.2400000000E+01   0.0000000000E+00   0.1493533703E-14   0.1000000000E+00   0.0000000000E+00   0.1294065264E-14   0.3000000000E+00   0.0000000000E+00   0.1994684384E-15   0.2000000003E+02   0.2081895365E-11   0.2008427429E-11   0.4432265913E-15   0.5203886987E-13  -0.5374481532E-15   0.2000000003E+00  -0.9980000015E-01  -0.9980000015E-01   0.2657586641E-16  -0.3222539127E-16   0.3120250637E-14   0.2000000003E+02
   0.2400000000E+01   0.9002000000E+00   0.1479891185E-14   0.1000000000E+00  -0.2495000000E-01   0.2613634591E-14   0.3000000000E+00  -0.7485000000E-01  -0.1133743406E-14   0.2000000003E+02   0.5376271401E-13  -0.1448439761E-12  -0.7647568393E-13   0.1499306702E-13  -0.7143561552E-14   0.2000000003E+00  -0.9980000014E-01  -0.9980000014E-01  -0.4585482008E-14  -0.4283279506E-15   0.8989842982E-15   0.2000000003E+02
   0.2400000000E+01   0.0000000000E+00   0.9002000000E+00   0.1000000000E+00   0.0000000000E+00  -0.2495000000E-01   0.3000000000E+00   0.0000000000E+00  -0.7485000000E-01   0.2000000003E+02   0.2354739323E-12   0.1466027335E-13  -0.8898713754E-15  -0.1106294078E-13   0.1866722230E-13   0.2000000003E+00  -0.9980000014E-01  -0.9980000014E-01  -0.5335668767E-16   0.1119286649E-14  -0.6633339289E-15   0.2000000003E+02
   0.2400000000E+01   0.9002000000E+00   0.9002000000E+00   0.1000000000E+00  -0.2495000000E-01  -0.2495000000E-01   0.3000000000E+00  -0.7485000000E-01  -0.7485000000E-01   0.2000000003E+02  -0.2379203480E-11  -0.2112573759E-11  -0.1810329676E-13   0.1216802256E-14   0.1443003637E-13   0.2000000003E+00  -0.9980000013E-01  -0.9980000013E-01  -0.1085473674E-14   0.8652249806E-15   0.7295946327E-16   0.2000000003E+02
     1     2     3     4     5     6     7     8
     2     9    10     3     6    11    12     7
 VARIABLES = X,Y,Z,DU1,DU2,DU3,U1,U2,U3,S11,S22,S33,S12,S13,S23,E11,E22,E33,E12,E23,E13,SMISES
 ZONE, T="0.5000D+01" F=FEPOINT, I=   12 J=    2 ET=BRICK
   0.0000000000E+00   0.0000000000E+00   0.0000000000E+00   0.0000000000E+00   0.0000000000E+00   0.0000000000E+00   0.0000000000E+00   0.0000000000E+00   0.0000000000E+00   0.2500000004E+02   0.2511845917E-11   0.2692769874E-11  -0.7322225330E-15   0.4986449861E-13   0.5836616673E-13   0.2500000004E+00  -0.1247500002E+00  -0.1247500002E+00  -0.4390406308E-16   0.3499635357E-14   0.2989875337E-14   0.2500000004E+02
   0.1250000000E+01   0.0000000000E+00   0.7809050693E-15   0.5000000000E-01   0.0000000000E+00   0.6046756127E-15   0.2000000000E+00   0.0000000000E+00   0.1762294566E-15   0.2500000004E+02  -0.9575433342E-12  -0.8879204451E-12   0.1256769732E-13   0.5566165968E-13  -0.3672652005E-13   0.2500000004E+00  -0.1247500002E+00  -0.1247500002E+00   0.7535591311E-15  -0.2202122142E-14   0.3337473114E-14   0.2500000004E+02
   0.1250000000E+01   0.8752500000E+00  -0.3316092768E-15   0.5000000000E-01  -0.2495000000E-01  -0.1520410628E-14   0.2000000000E+00  -0.9980000000E-01   0.1188801351E-14   0.2500000004E+02   0.4624629520E-12   0.6401883703E-12   0.9590214732E-14   0.3860490549E-13  -0.1906714010E-13   0.2500000004E+00  -0.1247500002E+00  -0.1247500002E+00   0.5750292754E-15  -0.1143265720E-14   0.2314750133E-14   0.2500000004E+02
   0.0000000000E+00   0.8752500000E+00   0.1756771257E-14   0.0000000000E+00  -0.2495000000E-01   0.8490628209E-15   0.0000000000E+00  -0.9980000000E-01   0.9077084361E-15   0.2500000004E+02  -0.1380827955E-11  -0.1245784882E-11  -0.1416565287E-12  -0.7268175745E-13  -0.6079020133E-13   0.2500000004E+00  -0.1247500002E+00  -0.1247500002E+00  -0.8493725462E-14  -0.3644980472E-14  -0.4357998176E-14   0.2500000004E+02
   0.0000000000E+00   0.0000000000E+00   0.8752500000E+00   0.0000000000E+00   0.0000000000E+00  -0.2495000000E-01   0.0000000000E+00   0.0000000000E+00  -0.9980000000E-01   0.2500000004E+02  -0.2653500816E-11  -0.2471612128E-11  -0.2587899237E-15  -0.8313504026E-13   0.3485597827E-13   0.2500000004E+00  -0.1247500002E+00  -0.1247500002E+00  -0.1551704383E-16   0.2089964457E-14  -0.4984777014E-14   0.2500000004E+02
   0.1250000000E+01   0.0000000000E+00   0.8752500000E+00   0.5000000000E-01   0.0000000000E+00  -0.2495000000E-01   0.2000000000E+00   0.0000000000E+00  -0.9980000000E-01   0.2500000004E+02   0.1289720265E-11   0.1347990907E-11   0.3573499201E-13   0.2779527539E-13   0.4332223754E-13   0.2500000004E+00  -0.1247500002E+00  -0.1247500002E+00   0.2142670121E-14   0.2597601363E-14   0.1666604712E-14   0.2500000004E+02
   0.1250000000E+01   0.8752500000E+00   0.8752500000E+00   0.5000000000E-01  -0.2495000000E-01  -0.2495000000E-01   0.2000000000E+00  -0.9980000000E-01  -0.9980000000E-01   0.2500000003E+02   0.1123739840E-12   0.2764396006E-12   0.6819779377E-13   0.5989857879E-13   0.6276410748E-13   0.2500000003E+00  -0.1247500002E+00  -0.1247500002E+00   0.4089139714E-14   0.3763335885E-14   0.3591518784E-14   0.2500000003E+02
   0.0000000000E+00   0.8752500000E+00   0.8752500000E+00   0.0000000000E+00  -0.2495000000E-01  -0.2495000000E-01   0.0000000000E+00  -0.9980000000E-01  -0.9980000000E-01   0.2500000003E+02  -0.5490021719E-12  -0.4336684265E-12   0.4714444955E-13  -0.7207320635E-13  -0.8702559635E-13   0.2500000003E+00  -0.1247500002E+00  -0.1247500002E+00   0.2826781195E-14  -0.5218054757E-14  -0.4321509453E-14   0.2500000003E+02
   0.2500000000E+01   0.0000000000E+00  -0.1425568676E-14   0.1000000000E+00   0.0000000000E+00  -0.2919102379E-14   0.4000000000E+00   0.0000000000E+00   0.1493533703E-14   0.2500000004E+02   0.2375316240E-11   0.2405607393E-11  -0.1372826011E-14  -0.1059021504E-12  -0.1431352649E-13   0.2500000004E+00  -0.1247500002E+00  -0.1247500002E+00  -0.8231464762E-16  -0.8582390483E-15  -0.6349892941E-14   0.2500000004E+02
   0.2500000000E+01   0.8752500000E+00  -0.1852656928E-14   0.1000000000E+00  -0.2495000000E-01  -0.3332548113E-14   0.4000000000E+00  -0.9980000000E-01   0.1479891185E-14   0.2500000003E+02  -0.2215132636E-11  -0.2100565416E-11   0.1357683410E-12  -0.4107005613E-13  -0.6368943647E-13   0.2500000003E+00  -0.1247500002E+00  -0.1247500002E+00   0.8140669724E-14  -0.3818818611E-14  -0.2462560566E-14   0.2500000003E+02
   0.2500000000E+01   0.0000000000E+00   0.8752500000E+00   0.1000000000E+00   0.0000000000E+00  -0.2495000000E-01   0.4000000000E+00   0.0000000000E+00  -0.9980000000E-01   0.2500000003E+02  -0.2860420269E-11  -0.2721856038E-11  -0.6425861418E-15  -0.6842759177E-14   0.4120023051E-13   0.2500000003E+00  -0.1247500002E+00  -0.1247500002E+00  -0.3852946506E-16   0.2470365822E-14  -0.4102918403E-15   0.2500000003E+02
   0.2500000000E+01   0.8752500000E+00   0.8752500000E+00   0.1000000000E+00  -0.2495000000E-01  -0.2495000000E-01   0.4000000000E+00  -0.9980000000E-01  -0.9980000000E-01   0.2500000003E+02   0.2660598275E-11   0.2908727740E-11   0.2047975451E-13  -0.2980196750E-13  -0.7973924618E-14   0.2500000003E+00  -0.1247500002E+00  -0.1247500002E+00   0.1227966081E-14  -0.4781165201E-15  -0.1786925972E-14   0.2500000003E+02
     1     2     3     4     5     6     7     8
     2     9    10     3     6    11    12     7
 VARIABLES = X,Y,Z,DU1,DU2,DU3,U1,U2,U3,S11,S22,S33,S12,S13,S23,E11,E22,E33,E12,E23,E13,SMISES
 ZONE, T="0.6000D+01" F=FEPOINT, I=   12 J=    2 ET=BRICK
   0.0000000000E+00   0.0000000000E+00   0.0000000000E+00   0.0000000000E+00   0.0000000000E+00   0.0000000000E+00   0.0000000000E+00   0.0000000000E+00   0.0000000000E+00   0.3000000005E+02   0.3837246739E-11   0.3959610717E-11   0.3140263216E-15   0.1976796540E-13   0.1005513730E-12   0.3000000005E+00  -0.1497000002E+00  -0.1497000002E+00   0.1882901824E-16   0.6029060326E-14   0.1185287205E-14   0.3000000005E+02
   0.1300000000E+01   0.0000000000E+00   0.2359570395E-15   0.5000000000E-01   0.0000000000E+00  -0.5449480298E-15   0.2500000000E+00   0.0000000000E+00   0.7809050693E-15   0.3000000005E+02  -0.9012576384E-12  -0.9322053177E-12   0.1842283534E-13   0.3641822313E-13   0.7711539591E-14   0.3000000005E+00  -0.1497000002E+00  -0.1497000002E+00   0.1104633207E-14   0.4623839139E-15   0.2183636659E-14   0.3000000005E+02
   0.1300000000E+01   0.8503000000E+00   0.4673879135E-15   0.5000000000E-01  -0.2495000000E-01   0.7989971902E-15   0.2500000000E+00  -0.1247500000E+00  -0.3316092768E-15   0.3000000004E+02   0.1181062194E-11   0.1206553060E-11   0.7710373197E-13  -0.2941761253E-13  -0.6495524296E-13   0.3000000004E+00  -0.1497000002E+00  -0.1497000002E+00   0.4623139769E-14  -0.3894716368E-14  -0.1763880047E-14   0.3000000004E+02
   0.0000000000E+00   0.8503000000E+00   0.3028953373E-14   0.0000000000E+00  -0.2495000000E-01   0.1272182116E-14   0.0000000000E+00  -0.1247500000E+00   0.1756771257E-14   0.3000000004E+02  -0.2927333864E-11  -0.3099321714E-11   0.9151941452E-13  -0.1069120203E-12   0.1186164109E-12   0.3000000004E+00  -0.1497000002E+00  -0.1497000002E+00   0.5487504095E-14   0.7112239995E-14  -0.6410444739E-14   0.3000000004E+02
   0.0000000000E+00   0.0000000000E+00   0.8503000000E+00   0.0000000000E+00   0.0000000000E+00  -0.2495000000E-01   0.0000000000E+00   0.0000000000E+00  -0.1247500000E+00   0.3000000004E+02  -0.3858589917E-11  -0.3801829146E-11   0.1755242864E-15  -0.9011852909E-13  -0.1057717880E-12   0.3000000004E+00  -0.1497000002E+00  -0.1497000002E+00   0.1052443621E-16  -0.6342076410E-14  -0.5403507004E-14   0.3000000004E+02
   0.1300000000E+01   0.0000000000E+00   0.8503000000E+00   0.5000000000E-01   0.0000000000E+00  -0.2495000000E-01   0.2500000000E+00   0.0000000000E+00  -0.1247500000E+00   0.3000000004E+02  -0.1785570177E-11  -0.1767060992E-11  -0.2313863889E-13   0.1552951095E-13   0.5075880364E-13   0.3000000004E+00  -0.1497000002E+00  -0.1497000002E+00  -0.1387392788E-14   0.3043497866E-14   0.9311494767E-15   0.3000000004E+02
   0.1300000000E+01   0.8503000000E+00   0.8503000000E+00   0.5000000000E-01  -0.2495000000E-01  -0.2495000000E-01   0.2500000000E+00  -0.1247500000E+00  -0.1247500000E+00   0.3000000004E+02  -0.2093544203E-12  -0.1367620720E-12  -0.2809662797E-15   0.4169841513E-13  -0.2139962191E-13   0.3000000004E+00  -0.1497000002E+00  -0.1497000002E+00  -0.1684673813E-16  -0.1283121330E-14   0.2500236971E-14   0.3000000004E+02
   0.0000000000E+00   0.8503000000E+00   0.8503000000E+00   0.0000000000E+00  -0.2495000000E-01  -0.2495000000E-01   0.0000000000E+00  -0.1247500000E+00  -0.1247500000E+00   0.3000000004E+02   0.4317989832E-11   0.4123331733E-11  -0.2530703039E-13   0.1118426633E-12  -0.8765141186E-13   0.3000000004E+00  -0.1497000002E+00  -0.1497000002E+00  -0.1517409542E-14  -0.5255578655E-14   0.6706086091E-14   0.3000000004E+02