 VARIABLES = X,Y,DU1,DU2,U1,U2,S11,S22,S33,S12,S13,S23,E11,E22,E12,E33,E13,E23,SMISES
 ZONE, T="0.1000D+01" F=FEPOINT, I=  259 J=  457
   0.3707585061E-01   0.1124024661E+00   0.1941201151E-04  -0.3282987469E-04   0.0000000000E+00   0.0000000000E+00   0.5269879183E-01   0.5570588808E-02   0.1748081419E-01  -0.6010487336E-02   0.0000000000E+00   0.0000000000E+00   0.4578337093E-03  -0.1548329300E-03  -0.7813633536E-04   0.0000000000E+00   0.0000000000E+00   0.0000000000E+00   0.4360938593E-01
   0.1952372141E-01   0.9804619608E-01   0.1468901177E-04  -0.3233051595E-04   0.0000000000E+00   0.0000000000E+00   0.7058312759E-01   0.7277489746E-02   0.2335818520E-01  -0.8176195341E-02   0.0000000000E+00   0.0000000000E+00   0.6139242510E-03  -0.2090490409E-03  -0.1062905394E-03   0.0000000000E+00   0.0000000000E+00   0.0000000000E+00   0.5866777490E-01
   0.3829743100E-01   0.9235870962E-01   0.2908839679E-04  -0.2924228052E-04   0.0000000000E+00   0.0000000000E+00   0.6546352299E-01   0.1131332338E-01   0.2303305391E-01  -0.1681969127E-01   0.0000000000E+00   0.0000000000E+00   0.5515960981E-03  -0.1523564969E-03  -0.2186559866E-03   0.0000000000E+00   0.0000000000E+00   0.0000000000E+00   0.5691055933E-01
   0.1069362848E+00   0.2330856341E+00   0.2644377234E-04  -0.3516485853E-04   0.0000000000E+00   0.0000000000E+00   0.3148086920E-01  -0.2069444277E-03   0.9382177432E-02   0.1605257006E-02   0.0000000000E+00   0.0000000000E+00   0.2872829930E-03  -0.1246585842E-03   0.2086834108E-04   0.0000000000E+00   0.0000000000E+00   0.0000000000E+00   0.2829409512E-01
   0.9724341642E-01   0.2499610736E+00   0.2119252365E-04  -0.3892640651E-04   0.0000000000E+00   0.0000000000E+00   0.3004955504E-01  -0.8055992593E-04   0.8990698534E-02   0.7623797148E-03   0.0000000000E+00   0.0000000000E+00   0.2737651346E-03  -0.1179263600E-03   0.9910936292E-05   0.0000000000E+00   0.0000000000E+00   0.0000000000E+00   0.2678242410E-01
   0.8739015184E-01   0.2329874499E+00   0.2098553643E-04  -0.3866714709E-04   0.0000000000E+00   0.0000000000E+00   0.2989501120E-01  -0.9687291621E-04   0.8939441485E-02   0.1838818474E-02   0.0000000000E+00   0.0000000000E+00   0.2724224063E-03  -0.1174720872E-03   0.2390464016E-04   0.0000000000E+00   0.0000000000E+00   0.0000000000E+00   0.2685220681E-01
   0.8879015353E-01   0.7379175206E-01   0.5497542748E-04  -0.1458594200E-04   0.0000000000E+00   0.0000000000E+00   0.1904202982E-01  -0.2523486243E-02   0.4955563073E-02  -0.7261753272E-02   0.0000000000E+00   0.0000000000E+00   0.1831240677E-03  -0.9722764110E-04  -0.9440279253E-04   0.0000000000E+00   0.0000000000E+00   0.0000000000E+00   0.2284115225E-01
   0.7333659444E-01   0.8912394687E-01   0.4355673570E-04  -0.2084923025E-04   0.0000000000E+00   0.0000000000E+00   0.3004351980E-01   0.9478414075E-03   0.9297408361E-02  -0.9105454869E-02   0.0000000000E+00   0.0000000000E+00   0.2696994487E-03  -0.1085443704E-03  -0.1183709133E-03   0.0000000000E+00   0.0000000000E+00   0.0000000000E+00   0.3077416901E-01
   0.7076475256E-01   0.7068998908E-01   0.5407115790E-04  -0.2069231709E-04   0.0000000000E+00   0.0000000000E+00   0.1928168041E-01   0.6039351510E-02   0.7596309575E-02  -0.1016869243E-01   0.0000000000E+00   0.0000000000E+00   0.1519098208E-03  -0.2024045485E-04  -0.1321930015E-03   0.0000000000E+00   0.0000000000E+00   0.0000000000E+00   0.2065342187E-01
   0.1653174955E+00   0.2330812419E+00   0.4411246148E-04  -0.2566909036E-04   0.0000000000E+00   0.0000000000E+00   0.3424261637E-01  -0.2717394330E-03   0.1019126308E-01   0.4217632903E-03   0.0000000000E+00   0.0000000000E+00   0.3126675928E-03  -0.1360190327E-03   0.5482922774E-05   0.0000000000E+00   0.0000000000E+00   0.0000000000E+00   0.3066169356E-01
   0.1555943611E+00   0.2499706545E+00   0.3880011876E-04  -0.2934553547E-04   0.0000000000E+00   0.0000000000E+00   0.3537236954E-01  -0.4664173315E-04   0.1059771834E-01   0.2716030394E-03   0.0000000000E+00   0.0000000000E+00   0.3220704656E-03  -0.1383766810E-03   0.3530839512E-05   0.0000000000E+00   0.0000000000E+00   0.0000000000E+00   0.3147726391E-01
   0.1458642770E+00   0.2330899002E+00   0.3807095796E-04  -0.2851478869E-04   0.0000000000E+00   0.0000000000E+00   0.3371558368E-01  -0.2950287661E-03   0.1002616648E-01   0.8314729958E-03   0.0000000000E+00   0.0000000000E+00   0.3079624237E-03  -0.1341755381E-03   0.1080914895E-04   0.0000000000E+00   0.0000000000E+00   0.0000000000E+00   0.3023951721E-01
   0.1018805320E+00   0.5682393309E-01   0.6457102540E-04  -0.9188814991E-05   0.0000000000E+00   0.0000000000E+00   0.1095177409E-01  -0.5996718575E-02   0.1486516655E-02  -0.5446018307E-02   0.0000000000E+00   0.0000000000E+00   0.1230483467E-03  -0.9728205799E-04  -0.7079823799E-04   0.0000000000E+00   0.0000000000E+00   0.0000000000E+00   0.1747023717E-01
   0.8321041350E-01   0.5554157154E-01   0.6345400012E-04  -0.1545215750E-04   0.0000000000E+00   0.0000000000E+00   0.5530019881E-02  -0.5007858815E-02   0.1566483199E-03  -0.2500244717E-02   0.0000000000E+00   0.0000000000E+00   0.6985383030E-04  -0.6713859275E-04  -0.3250318132E-04   0.0000000000E+00   0.0000000000E+00   0.0000000000E+00   0.1094272680E-01
   0.9815336692E-01   0.1950423300E-01   0.7484032045E-04  -0.4799400208E-05   0.0000000000E+00   0.0000000000E+00  -0.1253079428E-02  -0.1940601075E-01  -0.6197727054E-02   0.7426882352E-03   0.0000000000E+00   0.0000000000E+00   0.6428041913E-04  -0.1717076881E-03   0.9654947058E-05   0.0000000000E+00   0.0000000000E+00   0.0000000000E+00   0.1647418831E-01
   0.1000752398E+00   0.0000000000E+00   0.7523880562E-04   0.0000000000E+00   0.0000000000E+00   0.0000000000E+00   0.1957212600E-02  -0.3629254404E-01  -0.1030059943E-01  -0.1225041625E-02   0.0000000000E+00   0.0000000000E+00   0.1593515564E-03  -0.3378952799E-03  -0.1592554113E-04   0.0000000000E+00   0.0000000000E+00   0.0000000000E+00   0.3348573712E-01
   0.1209108328E+00   0.0000000000E+00   0.7750281467E-04   0.0000000000E+00   0.0000000000E+00   0.0000000000E+00  -0.9167465092E-03  -0.1539709981E-01  -0.4894153894E-02   0.2116473718E-03   0.0000000000E+00   0.0000000000E+00   0.5170629601E-04  -0.1365382968E-03   0.2751415834E-05   0.0000000000E+00   0.0000000000E+00   0.0000000000E+00   0.1343369682E-01
   0.1555790609E+00   0.2161704170E+00   0.4318394341E-04  -0.2474904393E-04   0.0000000000E+00   0.0000000000E+00   0.3322397680E-01  -0.7741591685E-03   0.9734945289E-02   0.9915267923E-03   0.0000000000E+00   0.0000000000E+00   0.3053574096E-03  -0.1366183579E-03   0.1288984830E-04   0.0000000000E+00   0.0000000000E+00   0.0000000000E+00   0.3019564000E-01
   0.1750413902E+00   0.2161567854E+00   0.4912721475E-04  -0.2210861187E-04   0.0000000000E+00   0.0000000000E+00   0.3323757866E-01  -0.6470608772E-03   0.9777155334E-02   0.3202386722E-03   0.0000000000E+00   0.0000000000E+00   0.3049855032E-03  -0.1355148107E-03   0.4163102738E-05   0.0000000000E+00   0.0000000000E+00   0.0000000000E+00   0.3006383123E-01
   0.1752219784E-01   0.2244893388E+00   0.4126342857E-05  -0.4690115214E-04   0.0000000000E+00   0.0000000000E+00   0.2704582680E-01   0.8272336218E-03   0.8361918126E-02   0.7370494146E-03   0.0000000000E+00   0.0000000000E+00   0.2428908127E-03  -0.9795089856E-04   0.9581642390E-05   0.0000000000E+00   0.0000000000E+00   0.0000000000E+00   0.2345484683E-01
   0.0000000000E+00   0.2312019693E+00   0.0000000000E+00  -0.4803372350E-04   0.0000000000E+00   0.0000000000E+00   0.2362667542E-01   0.6697529840E-03   0.7288928522E-02   0.1704090418E-03   0.0000000000E+00   0.0000000000E+00   0.2123907097E-03  -0.8604928199E-04   0.2215317544E-05   0.0000000000E+00   0.0000000000E+00   0.0000000000E+00   0.2048455167E-01
   0.0000000000E+00   0.2124537276E+00   0.0000000000E+00  -0.4627835925E-04   0.0000000000E+00   0.0000000000E+00   0.2823333251E-01   0.1596538116E-02   0.8948961188E-02   0.8480308920E-03   0.0000000000E+00   0.0000000000E+00   0.2506968272E-03  -0.9558149994E-04   0.1102440160E-04   0.0000000000E+00   0.0000000000E+00   0.0000000000E+00   0.2386365079E-01
   0.0000000000E+00   0.1187128590E+00   0.0000000000E+00  -0.3714004802E-04   0.0000000000E+00   0.0000000000E+00   0.6696620664E-01   0.7023715092E-02   0.2219697652E-01  -0.1912841950E-02   0.0000000000E+00   0.0000000000E+00   0.5819999915E-03  -0.1972523985E-03  -0.2486694536E-04   0.0000000000E+00   0.0000000000E+00   0.0000000000E+00   0.5447558974E-01
   0.0000000000E+00   0.9996850138E-01   0.0000000000E+00  -0.3149962457E-04   0.0000000000E+00   0.0000000000E+00   0.9922800295E-01  -0.1264318748E-02   0.2938910526E-01  -0.5107556294E-03   0.0000000000E+00   0.0000000000E+00   0.9079056700E-03  -0.3984945121E-03  -0.6639823182E-05   0.0000000000E+00   0.0000000000E+00   0.0000000000E+00   0.8838820868E-01
   0.1824452368E-01   0.1245353146E+00   0.8175276058E-05  -0.3684340132E-04   0.0000000000E+00   0.0000000000E+00   0.4882685418E-01   0.6923894184E-02   0.1672522451E-01  -0.2026836092E-02   0.0000000000E+00   0.0000000000E+00   0.4173211857E-03  -0.1274172942E-03  -0.2634886920E-04   0.0000000000E+00   0.0000000000E+00   0.0000000000E+00   0.3826330092E-01
   0.5561651183E-01   0.1017741163E+00   0.3139192580E-04  -0.2726465151E-04   0.0000000000E+00   0.0000000000E+00   0.4121014238E-01   0.2424943622E-02   0.1309052580E-01  -0.8722848383E-02   0.0000000000E+00   0.0000000000E+00   0.3655550155E-03  -0.1386525683E-03  -0.1133970290E-03   0.0000000000E+00   0.0000000000E+00   0.0000000000E+00   0.3809960650E-01
   0.5559950941E-01   0.8312154650E-01   0.4248571004E-04  -0.2541299733E-04   0.0000000000E+00   0.0000000000E+00   0.4083578801E-01   0.1164470838E-01   0.1574414892E-01  -0.1687276327E-01   0.0000000000E+00   0.0000000000E+00   0.3261913082E-03  -0.5329272698E-04  -0.2193459226E-03   0.0000000000E+00   0.0000000000E+00   0.0000000000E+00   0.3899340910E-01
   0.3652413570E-01   0.2153712134E+00   0.9197800863E-05  -0.4450264583E-04   0.0000000000E+00   0.0000000000E+00   0.2863918551E-01   0.1018790195E-02   0.8897392711E-02   0.2312495899E-02   0.0000000000E+00   0.0000000000E+00   0.2566433064E-03  -0.1024218327E-03   0.3006244668E-04   0.0000000000E+00   0.0000000000E+00   0.0000000000E+00   0.2496836276E-01
   0.5762512503E-01   0.2158434399E+00   0.1468032773E-04  -0.4170714757E-04   0.0000000000E+00   0.0000000000E+00   0.2944689208E-01   0.3081367815E-03   0.8926508659E-02   0.3000328936E-02   0.0000000000E+00   0.0000000000E+00   0.2667649845E-03  -0.1120388344E-03   0.3900427616E-04   0.0000000000E+00   0.0000000000E+00   0.0000000000E+00   0.2642654984E-01
   0.4852931062E-01   0.2330418772E+00   0.1102542486E-04  -0.4482782298E-04   0.0000000000E+00   0.0000000000E+00   0.2680375409E-01   0.4429759241E-03   0.8174019005E-02   0.1769688365E-02   0.0000000000E+00   0.0000000000E+00   0.2421865561E-03  -0.1005035601E-03   0.2300594875E-04   0.0000000000E+00   0.0000000000E+00   0.0000000000E+00   0.2368973169E-01
   0.1744749234E-01   0.1456156426E+00   0.6212139837E-05  -0.3933338926E-04   0.0000000000E+00   0.0000000000E+00   0.4207457918E-01   0.6505134950E-02   0.1457391424E-01   0.9746448833E-03   0.0000000000E+00   0.0000000000E+00   0.3575086442E-03  -0.1048941308E-03   0.1267038348E-04   0.0000000000E+00   0.0000000000E+00   0.0000000000E+00   0.3235331340E-01
   0.0000000000E+00   0.1562088474E+00   0.0000000000E+00  -0.4115263408E-04   0.0000000000E+00   0.0000000000E+00   0.3942408612E-01   0.7348759800E-02   0.1403185378E-01   0.1025628712E-02   0.0000000000E+00   0.0000000000E+00   0.3300990205E-03  -0.8688022170E-04   0.1333317326E-04   0.0000000000E+00   0.0000000000E+00   0.0000000000E+00   0.2943385113E-01
   0.0000000000E+00   0.1374605527E+00   0.0000000000E+00  -0.3945028195E-04   0.0000000000E+00   0.0000000000E+00   0.4676460976E-01   0.9509173293E-02   0.1688213492E-01   0.2626672592E-02   0.0000000000E+00   0.0000000000E+00   0.3884721730E-03  -0.9584850111E-04   0.3414674370E-04   0.0000000000E+00   0.0000000000E+00   0.0000000000E+00   0.3416928444E-01
   0.3594364495E-01   0.1343222230E+00   0.1409175419E-04  -0.3588499247E-04   0.0000000000E+00   0.0000000000E+00   0.4514841253E-01   0.6324586543E-02   0.1544189972E-01   0.8116149362E-03   0.0000000000E+00   0.0000000000E+00   0.3861846665E-03  -0.1185250713E-03   0.1055099417E-04   0.0000000000E+00   0.0000000000E+00   0.0000000000E+00   0.3516851197E-01
   0.3216470377E-01   0.2345317684E+00   0.7092667677E-05  -0.4679655008E-04   0.0000000000E+00   0.0000000000E+00   0.2456911573E-01   0.1616737917E-03   0.7419236856E-02   0.1292341423E-02   0.0000000000E+00   0.0000000000E+00   0.2229484253E-03  -0.9434831983E-04   0.1680043850E-04   0.0000000000E+00   0.0000000000E+00   0.0000000000E+00   0.2181021816E-01
   0.1944808278E-01   0.2499508407E+00   0.3637683758E-05  -0.4915930531E-04   0.0000000000E+00   0.0000000000E+00   0.2215435848E-01   0.2016825898E-03   0.6706812322E-02   0.3561878549E-03   0.0000000000E+00   0.0000000000E+00   0.2008181001E-03  -0.8456668651E-04   0.4630442113E-05   0.0000000000E+00   0.0000000000E+00   0.0000000000E+00   0.1956953271E-01
   0.1289772280E+00   0.2146500577E-01   0.7610399698E-04  -0.1517634148E-05   0.0000000000E+00   0.0000000000E+00   0.2477570715E-02  -0.6063109756E-02  -0.1075661712E-02  -0.2367873350E-02   0.0000000000E+00   0.0000000000E+00   0.4619202156E-04  -0.6483682457E-04  -0.3078235355E-04   0.0000000000E+00   0.0000000000E+00   0.0000000000E+00   0.8720838828E-02
   0.3292638861E+00   0.0000000000E+00   0.9720509032E-04   0.0000000000E+00   0.0000000000E+00   0.0000000000E+00   0.1674737950E-01   0.4695465414E-02   0.6432853474E-02  -0.6773013602E-04   0.0000000000E+00   0.0000000000E+00   0.1340888383E-03  -0.2258604478E-04  -0.8804917683E-06   0.0000000000E+00   0.0000000000E+00   0.0000000000E+00   0.1128407267E-01
   0.3500999940E+00   0.0000000000E+00   0.1000000000E-03   0.0000000000E+00   0.0000000000E+00   0.0000000000E+00   0.1663076383E-01   0.4667452487E-02   0.6389464894E-02   0.3229563233E-04   0.0000000000E+00   0.0000000000E+00   0.1331368861E-03  -0.2238616130E-04   0.4198432203E-06   0.0000000000E+00   0.0000000000E+00   0.0000000000E+00   0.1120183931E-01
   0.3500999940E+00   0.1923033306E-01   0.1000000000E-03  -0.4368373714E-06   0.0000000000E+00   0.0000000000E+00   0.1698678077E-01   0.4697213436E-02   0.6505198260E-02   0.3138871359E-05   0.0000000000E+00   0.0000000000E+00   0.1362605726E-03  -0.2350380272E-04   0.4080532766E-07   0.0000000000E+00   0.0000000000E+00   0.0000000000E+00   0.1149295895E-01
   0.3315267061E+00   0.2617108982E-01   0.9743306808E-04  -0.6111768354E-06   0.0000000000E+00   0.0000000000E+00   0.1722026032E-01   0.4655720063E-02   0.6562794114E-02  -0.1814305591E-03   0.0000000000E+00   0.0000000000E+00   0.1385470606E-03  -0.2479196266E-04  -0.2358597269E-05   0.0000000000E+00   0.0000000000E+00   0.0000000000E+00   0.1172995673E-01
   0.3500999940E+00   0.3846061145E-01   0.1000000000E-03  -0.9284490916E-06   0.0000000000E+00   0.0000000000E+00   0.1757425395E-01   0.4439279958E-02   0.6604060173E-02  -0.1659514847E-04   0.0000000000E+00   0.0000000000E+00   0.1426125191E-03  -0.2814214278E-04  -0.2157369301E-06   0.0000000000E+00   0.0000000000E+00   0.0000000000E+00   0.1219732230E-01
   0.3158751442E+00   0.7695323783E-01   0.9432622658E-04  -0.2333973297E-05   0.0000000000E+00   0.0000000000E+00   0.1968363119E-01   0.3467974289E-02   0.6945481644E-02  -0.9234991689E-03   0.0000000000E+00   0.0000000000E+00   0.1655959441E-03  -0.4520759561E-04  -0.1200548920E-04   0.0000000000E+00   0.0000000000E+00   0.0000000000E+00   0.1487170008E-01
   0.3328256055E+00   0.6720748662E-01   0.9724946777E-04  -0.1906182922E-05   0.0000000000E+00   0.0000000000E+00   0.1910831602E-01   0.3809612195E-02   0.6875378466E-02  -0.4036642008E-03   0.0000000000E+00   0.0000000000E+00   0.1590281883E-03  -0.3985496152E-04  -0.5247634610E-05   0.0000000000E+00   0.0000000000E+00   0.0000000000E+00   0.1403527461E-01
   0.3331818045E+00   0.8655470107E-01   0.9707249753E-04  -0.2769230808E-05   0.0000000000E+00   0.0000000000E+00   0.2042605125E-01   0.3298488269E-02   0.7117361854E-02  -0.4563851452E-03   0.0000000000E+00   0.0000000000E+00   0.1730129621E-03  -0.4964535661E-04  -0.5933006888E-05   0.0000000000E+00   0.0000000000E+00   0.0000000000E+00   0.1559235799E-01
   0.3115097981E+00   0.3581605242E-01   0.9454306042E-04  -0.8666808515E-06   0.0000000000E+00   0.0000000000E+00   0.1723544778E-01   0.4311405404E-02   0.6464055954E-02  -0.6293741022E-03   0.0000000000E+00   0.0000000000E+00   0.1400280937E-03  -0.2798445715E-04  -0.8181863329E-05   0.0000000000E+00   0.0000000000E+00   0.0000000000E+00   0.1204189701E-01
   0.3158685520E+00   0.1595461428E-01   0.9536301880E-04  -0.3645236782E-06   0.0000000000E+00   0.0000000000E+00   0.1669235861E-01   0.4573196245E-02   0.6379666457E-02  -0.2465494083E-03   0.0000000000E+00   0.0000000000E+00   0.1340649980E-03  -0.2348411276E-04  -0.3205142308E-05   0.0000000000E+00   0.0000000000E+00   0.0000000000E+00   0.1133378850E-01
   0.2776904481E+00   0.1796134590E-01   0.9030906378E-04  -0.4058028712E-06   0.0000000000E+00   0.0000000000E+00   0.1592162043E-01   0.4194147119E-02   0.6034730266E-02  -0.5653902955E-03   0.0000000000E+00   0.0000000000E+00   0.1285295722E-03  -0.2392758091E-04  -0.7350073842E-05   0.0000000000E+00   0.0000000000E+00   0.0000000000E+00   0.1097340525E-01
   0.2667557764E+00   0.0000000000E+00   0.8909537818E-04   0.0000000000E+00   0.0000000000E+00   0.0000000000E+00   0.1525979467E-01   0.4140559541E-02   0.5820106262E-02  -0.2353876006E-03   0.0000000000E+00   0.0000000000E+00   0.1227159493E-03  -0.2183410737E-04  -0.3060038808E-05   0.0000000000E+00   0.0000000000E+00   0.0000000000E+00   0.1037578381E-01
   0.2875917070E+00   0.0000000000E+00   0.9171301002E-04   0.0000000000E+00   0.0000000000E+00   0.0000000000E+00   0.1598734234E-01   0.4422500815E-02   0.6122952946E-02  -0.1803089062E-03   0.0000000000E+00   0.0000000000E+00   0.1282370621E-03  -0.2210587771E-04  -0.2344015781E-05   0.0000000000E+00   0.0000000000E+00   0.0000000000E+00   0.1081565494E-01
   0.2355705536E+00   0.1793950496E-01   0.8517855705E-04  -0.3978398820E-06   0.0000000000E+00   0.0000000000E+00   0.1396961573E-01   0.3367453602E-02   0.5201120799E-02  -0.1043909071E-02   0.0000000000E+00   0.0000000000E+00   0.1139904341E-03  -0.2383767356E-04  -0.1357081792E-04   0.0000000000E+00   0.0000000000E+00   0.0000000000E+00   0.1000374103E-01
   0.2459199516E+00   0.0000000000E+00   0.8661460806E-04   0.0000000000E+00   0.0000000000E+00   0.0000000000E+00   0.1423865336E-01   0.3735366323E-02   0.5392205905E-02  -0.3228873842E-03   0.0000000000E+00   0.0000000000E+00   0.1150038169E-03  -0.2153891457E-04  -0.4197535995E-05   0.0000000000E+00   0.0000000000E+00   0.0000000000E+00   0.9771164670E-02
   0.2565967874E+00   0.1801991494E-01   0.8766242762E-04  -0.4038623832E-06   0.0000000000E+00   0.0000000000E+00   0.1506710854E-01   0.3848020946E-02   0.5674538845E-02  -0.8020571945E-03   0.0000000000E+00   0.0000000000E+00   0.1221034060E-03  -0.2374473270E-04  -0.1042674353E-04   0.0000000000E+00   0.0000000000E+00   0.0000000000E+00   0.1053286931E-01
   0.2989884171E+00   0.8661713070E-01   0.9115108225E-04  -0.2834995102E-05   0.0000000000E+00   0.0000000000E+00   0.2031603348E-01   0.2967940554E-02   0.6985192210E-02  -0.1424644761E-02   0.0000000000E+00   0.0000000000E+00   0.1733009365E-03  -0.5222427153E-04  -0.1852038190E-04   0.0000000000E+00   0.0000000000E+00   0.0000000000E+00   0.1591936276E-01
   0.3162542635E+00   0.9621609140E-01   0.9388252582E-04  -0.3306704314E-05   0.0000000000E+00   0.0000000000E+00   0.2113628532E-01   0.2912896404E-02   0.7214754516E-02  -0.9731500864E-03   0.0000000000E+00   0.0000000000E+00   0.1809799004E-03  -0.5592415546E-04  -0.1265095112E-04   0.0000000000E+00   0.0000000000E+00   0.0000000000E+00   0.1658341556E-01
   0.2993765086E+00   0.1058809790E+00   0.9041160451E-04  -0.3945999953E-05   0.0000000000E+00   0.0000000000E+00   0.2190547695E-01   0.2412482718E-02   0.7295387901E-02  -0.1468377405E-02   0.0000000000E+00   0.0000000000E+00   0.1899311577E-03  -0.6347776738E-04  -0.1908890627E-04   0.0000000000E+00   0.0000000000E+00   0.0000000000E+00   0.1775051018E-01
   0.1936991608E+00   0.1783112250E-01   0.8086283346E-04  -0.4171990993E-06   0.0000000000E+00   0.0000000000E+00   0.1072021772E-01   0.1714958064E-02   0.3730552735E-02  -0.1717440276E-02   0.0000000000E+00   0.0000000000E+00   0.9086564481E-04  -0.2620273073E-04  -0.2232672359E-04   0.0000000000E+00   0.0000000000E+00   0.0000000000E+00   0.8793340811E-02
   0.2042489287E+00   0.0000000000E+00   0.8226269061E-04   0.0000000000E+00   0.0000000000E+00   0.0000000000E+00   0.1112252650E-01   0.2399995280E-02   0.4056756535E-02  -0.5791398071E-03   0.0000000000E+00   0.0000000000E+00   0.9185500958E-04  -0.2153789632E-04  -0.7528817492E-05   0.0000000000E+00   0.0000000000E+00   0.0000000000E+00   0.8012006132E-02
   0.2146481158E+00   0.1790966792E-01   0.8289880062E-04  -0.4009839229E-06   0.0000000000E+00   0.0000000000E+00   0.1253031993E-01   0.2678980714E-02   0.4562790192E-02  -0.1354213485E-02   0.0000000000E+00   0.0000000000E+00   0.1035778866E-03  -0.2448952322E-04  -0.1760477530E-04   0.0000000000E+00   0.0000000000E+00   0.0000000000E+00   0.9402180946E-02
   0.1321671702E+00   0.4107684037E-01   0.7271220213E-04  -0.2975130336E-05   0.0000000000E+00   0.0000000000E+00   0.7577293398E-02  -0.6200293385E-02   0.4131000039E-03  -0.5806930156E-02   0.0000000000E+00   0.0000000000E+00   0.9313451412E-04  -0.8597411405E-04  -0.7549009203E-04   0.0000000000E+00   0.0000000000E+00   0.0000000000E+00   0.1565091190E-01
   0.1251536479E+00   0.5990077134E-01   0.6669990856E-04  -0.5398455227E-05   0.0000000000E+00   0.0000000000E+00   0.1291149329E-01  -0.7050641825E-02   0.1758255439E-02  -0.7642154356E-02   0.0000000000E+00   0.0000000000E+00   0.1449920920E-03  -0.1145156644E-03  -0.9934800663E-04   0.0000000000E+00   0.0000000000E+00   0.0000000000E+00   0.2188052643E-01
   0.1130683940E+00   0.3922608706E-01   0.7163702634E-04  -0.4967444060E-05   0.0000000000E+00   0.0000000000E+00   0.3954215574E-02  -0.1027307252E-01  -0.1895657084E-02  -0.3907590569E-02   0.0000000000E+00   0.0000000000E+00   0.7604834455E-04  -0.1089064007E-03  -0.5079867739E-04   0.0000000000E+00   0.0000000000E+00   0.0000000000E+00   0.1438855765E-01
   0.1728041079E+00   0.1762992123E-01   0.7913089277E-04  -0.4695721429E-06   0.0000000000E+00   0.0000000000E+00   0.8451868750E-02   0.4189093098E-03   0.2661233418E-02  -0.2147862463E-02   0.0000000000E+00   0.0000000000E+00   0.7527825932E-04  -0.2915021341E-04  -0.2792221202E-04   0.0000000000E+00   0.0000000000E+00   0.0000000000E+00   0.8190815215E-02
   0.1834138493E+00   0.0000000000E+00   0.8051233002E-04   0.0000000000E+00   0.0000000000E+00   0.0000000000E+00   0.8804983774E-02   0.1268874424E-02   0.3022157459E-02  -0.8198961623E-03   0.0000000000E+00   0.0000000000E+00   0.7517674209E-04  -0.2279267946E-04  -0.1065865011E-04   0.0000000000E+00   0.0000000000E+00   0.0000000000E+00   0.6868530189E-02
   0.9245827088E-01   0.3825829631E-01   0.7031898010E-04  -0.1004629308E-04   0.0000000000E+00   0.0000000000E+00  -0.1821913523E-03  -0.1845160518E-01  -0.5590138961E-02   0.1581868356E-02   0.0000000000E+00   0.0000000000E+00   0.7030331891E-04  -0.1671990609E-03   0.2056428863E-04   0.0000000000E+00   0.0000000000E+00   0.0000000000E+00   0.1573234336E-01
   0.3306497495E+00   0.2499818585E+00   0.9419153145E-04  -0.1814150357E-04   0.0000000000E+00   0.0000000000E+00   0.3273207635E-01   0.2847742157E-04   0.9828166133E-02  -0.1440108465E-05   0.0000000000E+00   0.0000000000E+00   0.2977508329E-03  -0.1273959532E-03  -0.1872141004E-07   0.0000000000E+00   0.0000000000E+00   0.0000000000E+00   0.2906973721E-01
   0.3500999940E+00   0.2307535840E+00   0.1000000000E-03  -0.1564803975E-04   0.0000000000E+00   0.0000000000E+00   0.3194942136E-01   0.2009711011E-04   0.9590855540E-02  -0.4397788134E-04   0.0000000000E+00   0.0000000000E+00   0.2906613556E-03  -0.1244198596E-03  -0.5717124574E-06   0.0000000000E+00   0.0000000000E+00   0.0000000000E+00   0.2838196771E-01
   0.3500999940E+00   0.2499818831E+00   0.1000000000E-03  -0.1811690379E-04   0.0000000000E+00   0.0000000000E+00   0.3327105001E-01  -0.1205357172E-03   0.9945154288E-02   0.1200268375E-03   0.0000000000E+00   0.0000000000E+00   0.3032366444E-03  -0.1308539701E-03   0.1560348887E-05   0.0000000000E+00   0.0000000000E+00   0.0000000000E+00   0.2966832977E-01
   0.3241553030E+00   0.2323429774E+00   0.9244899176E-04  -0.1596961045E-04   0.0000000000E+00   0.0000000000E+00   0.3199170238E-01   0.6251964004E-04   0.9616266605E-02  -0.2551425350E-03   0.0000000000E+00   0.0000000000E+00   0.2908806650E-03  -0.1241987105E-03  -0.3316852954E-05   0.0000000000E+00   0.0000000000E+00   0.0000000000E+00   0.2838813399E-01
   0.3111994724E+00   0.2499816431E+00   0.8835043679E-04  -0.1835685885E-04   0.0000000000E+00   0.0000000000E+00   0.3317480497E-01   0.1360099598E-03   0.9993244478E-02  -0.2849612390E-04   0.0000000000E+00   0.0000000000E+00   0.3013602863E-03  -0.1281440487E-03  -0.3704496107E-06   0.0000000000E+00   0.0000000000E+00   0.0000000000E+00   0.2937732174E-01
   0.2834014758E+00   0.1997121532E+00   0.8197283816E-04  -0.1274481796E-04   0.0000000000E+00   0.0000000000E+00   0.3019090275E-01   0.3060579119E-03   0.9149088199E-02  -0.9393970290E-03   0.0000000000E+00   0.0000000000E+00   0.2735435892E-03  -0.1149593937E-03  -0.1221216138E-04   0.0000000000E+00   0.0000000000E+00   0.0000000000E+00   0.2663867995E-01
   0.2730371199E+00   0.2161498180E+00   0.7821489395E-04  -0.1499395812E-04   0.0000000000E+00   0.0000000000E+00   0.3160131312E-01   0.8952947372E-04   0.9507252778E-02  -0.8001192986E-03   0.0000000000E+00   0.0000000000E+00   0.2872227844E-03  -0.1224304030E-03  -0.1040155088E-04   0.0000000000E+00   0.0000000000E+00   0.0000000000E+00   0.2804979445E-01
   0.2634099835E+00   0.1994714597E+00   0.7648453726E-04  -0.1332028604E-04   0.0000000000E+00   0.0000000000E+00   0.3046692162E-01   0.1331489048E-03   0.9180021158E-02  -0.1110627349E-02   0.0000000000E+00   0.0000000000E+00   0.2767297060E-03  -0.1176093393E-03  -0.1443815554E-04   0.0000000000E+00   0.0000000000E+00   0.0000000000E+00   0.2704129250E-01
   0.3156803292E+00   0.1923690470E+00   0.9093119617E-04  -0.1136598808E-04   0.0000000000E+00   0.0000000000E+00   0.2914375343E-01   0.4733992850E-03   0.8885145814E-02  -0.6055604099E-03   0.0000000000E+00   0.0000000000E+00   0.2633618990E-03  -0.1093527049E-03  -0.7872285328E-05   0.0000000000E+00   0.0000000000E+00   0.0000000000E+00   0.2554847130E-01
   0.3332063484E+00   0.1825869817E+00   0.9568844018E-04  -0.1017834764E-04   0.0000000000E+00   0.0000000000E+00   0.2842138734E-01   0.7690587312E-03   0.8757133820E-02  -0.3415244640E-03   0.0000000000E+00   0.0000000000E+00   0.2556352957E-03  -0.1038449762E-03  -0.4439818031E-05   0.0000000000E+00   0.0000000000E+00   0.0000000000E+00   0.2465668206E-01
   0.3332271735E+00   0.2016128536E+00   0.9544247375E-04  -0.1224042933E-04   0.0000000000E+00   0.0000000000E+00   0.3000626169E-01   0.4443549207E-03   0.9135184983E-02  -0.2943707453E-03   0.0000000000E+00   0.0000000000E+00   0.2713239972E-03  -0.1129807908E-03  -0.3826819689E-05   0.0000000000E+00   0.0000000000E+00   0.0000000000E+00   0.2632162642E-01
   0.3333051722E+00   0.1634035749E+00   0.9598519135E-04  -0.8281110182E-05   0.0000000000E+00   0.0000000000E+00   0.2680056819E-01   0.1187729438E-02   0.8396489288E-02  -0.4055900078E-03   0.0000000000E+00   0.0000000000E+00   0.2392530257E-03  -0.9371387805E-04  -0.5272670102E-05   0.0000000000E+00   0.0000000000E+00   0.0000000000E+00   0.2288800420E-01
   0.3500999940E+00   0.1730677501E+00   0.1000000000E-03  -0.9177871342E-05   0.0000000000E+00   0.0000000000E+00   0.2758520058E-01   0.9677518347E-03   0.8565885725E-02   0.6033205817E-05   0.0000000000E+00   0.0000000000E+00   0.2472510931E-03  -0.9877574058E-04   0.7843167562E-07   0.0000000000E+00   0.0000000000E+00   0.0000000000E+00   0.2374876947E-01
   0.3500999940E+00   0.1538387805E+00   0.1000000000E-03  -0.7379511093E-05   0.0000000000E+00   0.0000000000E+00   0.2596502789E-01   0.1439704253E-02   0.8221419644E-02   0.2111034257E-05   0.0000000000E+00   0.0000000000E+00   0.2306669072E-03  -0.8816230008E-04   0.2744344534E-07   0.0000000000E+00   0.0000000000E+00   0.0000000000E+00   0.2193539901E-01
   0.2677319246E+00   0.3629317179E-01   0.8853264907E-04  -0.8862074536E-06   0.0000000000E+00   0.0000000000E+00   0.1623608573E-01   0.3756087323E-02   0.5997651916E-02  -0.1393987803E-02   0.0000000000E+00   0.0000000000E+00   0.1330996396E-03  -0.2914033971E-04  -0.1812184144E-04   0.0000000000E+00   0.0000000000E+00   0.0000000000E+00   0.1176227221E-01
   0.3164919059E+00   0.1346215877E+00   0.9280894746E-04  -0.5888344265E-05   0.0000000000E+00   0.0000000000E+00   0.2437776772E-01   0.1804896777E-02   0.7854799349E-02  -0.9231228239E-03   0.0000000000E+00   0.0000000000E+00   0.2147985888E-03  -0.7864873344E-04  -0.1200059671E-04   0.0000000000E+00   0.0000000000E+00   0.0000000000E+00   0.2030052960E-01
   0.3164705369E+00   0.1154517781E+00   0.9337391188E-04  -0.4489895082E-05   0.0000000000E+00   0.0000000000E+00   0.2271634394E-01   0.2348688247E-02   0.7519509655E-02  -0.9703761589E-03   0.0000000000E+00   0.0000000000E+00   0.1975588457E-03  -0.6722067831E-04  -0.1261489007E-04   0.0000000000E+00   0.0000000000E+00   0.0000000000E+00   0.1841335771E-01