 VARIABLES = X,Y,Z,DU1,DU2,DU3,U1,U2,U3,S11,S22,S33,S12,S13,S23,MISES
 ZONE, T="0.1000D+01" F=FEPOINT, I=   12 J=    2 ET=BRICK
   0.0000000000E+00   0.0000000000E+00   0.0000000000E+00   0.0000000000E+00   0.0000000000E+00   0.0000000000E+00   0.0000000000E+00   0.0000000000E+00   0.0000000000E+00   0.2694413814E+01   0.1537683307E-12   0.1510513323E-12   0.3548806100E-16   0.1928827560E-15   0.5782334346E-15   0.0000000000E+00
   0.1090000000E+01   0.0000000000E+00   0.1231871981E-16   0.9000000000E-01   0.0000000000E+00   0.1231871981E-16   0.0000000000E+00   0.0000000000E+00   0.0000000000E+00   0.2694413814E+01   0.3137709119E-12   0.3244507643E-12  -0.4435159494E-15   0.3712126650E-15   0.5769887940E-15   0.0000000000E+00
   0.1090000000E+01   0.9582563187E+00   0.7184487500E-16   0.9000000000E-01  -0.4174368125E-01   0.7184487500E-16   0.0000000000E+00   0.0000000000E+00   0.0000000000E+00   0.2694413814E+01   0.3190166075E-12   0.3197194459E-12  -0.3465346530E-15  -0.1864210080E-15  -0.2432387562E-15   0.0000000000E+00
   0.0000000000E+00   0.9582563187E+00   0.6365242598E-16   0.0000000000E+00  -0.4174368125E-01   0.6365242598E-16   0.0000000000E+00   0.0000000000E+00   0.0000000000E+00   0.2694413814E+01   0.1466025920E-12   0.1521996978E-12   0.1673942254E-14   0.1906663969E-15   0.5086651335E-16   0.0000000000E+00
   0.0000000000E+00   0.0000000000E+00   0.9582563187E+00   0.0000000000E+00   0.0000000000E+00  -0.4174368125E-01   0.0000000000E+00   0.0000000000E+00   0.0000000000E+00   0.2694413814E+01   0.1449397378E-12   0.1505368437E-12  -0.8787220639E-17  -0.3589874194E-15   0.1060719475E-15   0.0000000000E+00
   0.1090000000E+01   0.0000000000E+00   0.9582563187E+00   0.9000000000E-01   0.0000000000E+00  -0.4174368125E-01   0.0000000000E+00   0.0000000000E+00   0.0000000000E+00   0.2694413814E+01   0.3223423158E-12   0.3230451543E-12  -0.6175322073E-15   0.5208285802E-15   0.2995115857E-15   0.0000000000E+00
   0.1090000000E+01   0.9582563187E+00   0.9582563187E+00   0.9000000000E-01  -0.4174368125E-01  -0.4174368125E-01   0.0000000000E+00   0.0000000000E+00   0.0000000000E+00   0.2694413813E+01   0.3218278568E-12   0.3125535404E-12   0.2514768278E-15  -0.4495101371E-15  -0.5207159645E-15   0.0000000000E+00
   0.0000000000E+00   0.9582563187E+00   0.9582563187E+00   0.0000000000E+00  -0.4174368125E-01  -0.4174368125E-01   0.0000000000E+00   0.0000000000E+00   0.0000000000E+00   0.2694413813E+01   0.1464142311E-12   0.1603256524E-12   0.8936403202E-15   0.2243824199E-15  -0.4212949737E-15   0.0000000000E+00
   0.2180000000E+01   0.0000000000E+00   0.7469431045E-17   0.1800000000E+00   0.0000000000E+00   0.7469431045E-17   0.0000000000E+00   0.0000000000E+00   0.0000000000E+00   0.2694413814E+01   0.4975676834E-12   0.4855763404E-12   0.2208132082E-15  -0.3351631597E-15   0.3988955477E-15   0.0000000000E+00
   0.2180000000E+01   0.9582563187E+00   0.5093594593E-16   0.1800000000E+00  -0.4174368125E-01   0.5093594593E-16   0.0000000000E+00   0.0000000000E+00   0.0000000000E+00   0.2694413813E+01   0.4904018333E-12   0.4900504141E-12  -0.1223678392E-14   0.1840219172E-15   0.1159330846E-14   0.0000000000E+00
   0.2180000000E+01   0.0000000000E+00   0.9582563187E+00   0.1800000000E+00   0.0000000000E+00  -0.4174368125E-01   0.0000000000E+00   0.0000000000E+00   0.0000000000E+00   0.2694413813E+01   0.4854132707E-12   0.4850618515E-12  -0.2931127761E-15   0.5159388461E-15  -0.8540734124E-15   0.0000000000E+00
   0.2180000000E+01   0.9582563187E+00   0.9582563187E+00   0.1800000000E+00  -0.4174368125E-01  -0.4174368125E-01   0.0000000000E+00   0.0000000000E+00   0.0000000000E+00   0.2694413813E+01   0.4811274978E-12   0.4924160728E-12   0.5424777532E-15  -0.3758723640E-15  -0.9363811403E-16   0.0000000000E+00
     1     2     3     4     5     6     7     8
     2     9    10     3     6    11    12     7
 VARIABLES = X,Y,Z,DU1,DU2,DU3,U1,U2,U3,S11,S22,S33,S12,S13,S23,MISES
 ZONE, T="0.2000D+01" F=FEPOINT, I=   12 J=    2 ET=BRICK
   0.0000000000E+00   0.0000000000E+00   0.0000000000E+00   0.0000000000E+00   0.0000000000E+00   0.0000000000E+00   0.0000000000E+00   0.0000000000E+00   0.0000000000E+00   0.5417802406E+01   0.4597188819E-12   0.4638596991E-12   0.1365050860E-15   0.3696829103E-15  -0.1377231701E-15   0.0000000000E+00
   0.1180000000E+01   0.0000000000E+00   0.6209925640E-16   0.9000000000E-01   0.0000000000E+00   0.4978053659E-16   0.9000000000E-01   0.0000000000E+00   0.1231871981E-16   0.5417802406E+01  -0.3932064922E-13  -0.3738367768E-13   0.2397411003E-15   0.1169120461E-14  -0.6883153416E-16   0.0000000000E+00
   0.1180000000E+01   0.9214054915E+00   0.5539733873E-16   0.9000000000E-01  -0.3685082724E-01  -0.1644753627E-16   0.9000000000E-01  -0.4174368125E-01   0.7184487500E-16   0.5417802405E+01  -0.4138622791E-13  -0.3909834832E-13  -0.1377318731E-14   0.9374353064E-15  -0.1279318374E-15   0.0000000000E+00
   0.0000000000E+00   0.9214054915E+00  -0.1160642250E-16   0.0000000000E+00  -0.3685082724E-01  -0.7525884848E-16   0.0000000000E+00  -0.4174368125E-01   0.6365242598E-16   0.5417802405E+01   0.4637772292E-12   0.4654745902E-12  -0.1750471224E-15   0.6801064902E-15   0.3210692232E-15   0.0000000000E+00
   0.0000000000E+00   0.0000000000E+00   0.9214054915E+00   0.0000000000E+00   0.0000000000E+00  -0.3685082724E-01   0.0000000000E+00   0.0000000000E+00  -0.4174368125E-01   0.5417802405E+01   0.4605176435E-12   0.4646584372E-12  -0.3198416376E-18  -0.3466746316E-15  -0.2068747861E-15   0.0000000000E+00
   0.1180000000E+01   0.0000000000E+00   0.9214054915E+00   0.9000000000E-01   0.0000000000E+00  -0.3685082724E-01   0.9000000000E-01   0.0000000000E+00  -0.4174368125E-01   0.5417802405E+01  -0.4091817252E-13  -0.3898115404E-13   0.2529233021E-15  -0.1117914553E-14   0.8988878640E-16   0.0000000000E+00
   0.1180000000E+01   0.9214054915E+00   0.9214054915E+00   0.9000000000E-01  -0.3685082724E-01  -0.3685082724E-01   0.9000000000E-01  -0.4174368125E-01  -0.4174368125E-01   0.5417802404E+01  -0.4095817288E-13  -0.3867030587E-13  -0.1310527451E-14  -0.8546331333E-15   0.3078848313E-16   0.0000000000E+00
   0.0000000000E+00   0.9214054915E+00   0.9214054915E+00   0.0000000000E+00  -0.3685082724E-01  -0.3685082724E-01   0.0000000000E+00  -0.4174368125E-01  -0.4174368125E-01   0.5417802405E+01   0.4635632016E-12   0.4652605689E-12  -0.1111602448E-14  -0.8177839788E-17   0.2519176072E-15   0.0000000000E+00
   0.2360000000E+01   0.0000000000E+00   0.2297637821E-15   0.1800000000E+00   0.0000000000E+00   0.2222943511E-15   0.1800000000E+00   0.0000000000E+00   0.7469431045E-17   0.5417802406E+01  -0.5537778716E-12  -0.5514255320E-12   0.2302414484E-15   0.1462533906E-14  -0.6967809934E-15   0.0000000000E+00
   0.2360000000E+01   0.9214054915E+00   0.1547184841E-15   0.1800000000E+00  -0.3685082724E-01   0.1037825381E-15   0.1800000000E+00  -0.4174368125E-01   0.5093594593E-16   0.5417802405E+01  -0.5424185276E-12  -0.5402419455E-12  -0.2692326006E-14   0.1910819824E-14  -0.2658125971E-15   0.0000000000E+00
   0.2360000000E+01   0.0000000000E+00   0.9214054915E+00   0.1800000000E+00   0.0000000000E+00  -0.3685082724E-01   0.1800000000E+00   0.0000000000E+00  -0.4174368125E-01   0.5417802405E+01  -0.5426525552E-12  -0.5403005426E-12   0.2768999423E-15  -0.2395178580E-14   0.1878627084E-15   0.0000000000E+00
   0.2360000000E+01   0.9214054915E+00   0.9214054915E+00   0.1800000000E+00  -0.3685082724E-01  -0.3685082724E-01   0.1800000000E+00  -0.4174368125E-01  -0.4174368125E-01   0.5417802404E+01  -0.5453995466E-12  -0.5432228769E-12  -0.1738718957E-14  -0.9850327249E-15   0.6188311046E-15   0.0000000000E+00
     1     2     3     4     5     6     7     8
     2     9    10     3     6    11    12     7
 VARIABLES = X,Y,Z,DU1,DU2,DU3,U1,U2,U3,S11,S22,S33,S12,S13,S23,MISES
 ZONE, T="0.3000D+01" F=FEPOINT, I=   12 J=    2 ET=BRICK
   0.0000000000E+00   0.0000000000E+00   0.0000000000E+00   0.0000000000E+00   0.0000000000E+00   0.0000000000E+00   0.0000000000E+00   0.0000000000E+00   0.0000000000E+00   0.8196117974E+01   0.4771562643E-13   0.4519831557E-13  -0.8639102754E-16  -0.3151387170E-14  -0.1394596128E-14   0.0000000000E+00
   0.1270000000E+01   0.0000000000E+00  -0.1681926451E-15   0.9000000000E-01   0.0000000000E+00  -0.2302919015E-15   0.1800000000E+00   0.0000000000E+00   0.6209925640E-16   0.8196117973E+01   0.7421088332E-13   0.7070041670E-13   0.8438827760E-15  -0.5236912240E-15   0.6244500988E-15   0.0000000000E+00
   0.1270000000E+01   0.8885678291E+00  -0.1013893791E-15   0.9000000000E-01  -0.3283766243E-01  -0.1567867178E-15   0.1800000000E+00  -0.7859450850E-01   0.5539733873E-16   0.8196117972E+01   0.4803177361E-13   0.4770880338E-13  -0.9272411227E-15   0.7064536773E-16  -0.2033323979E-16   0.0000000000E+00
   0.0000000000E+00   0.8885678291E+00  -0.1515798908E-15   0.0000000000E+00  -0.3283766243E-01  -0.1399734683E-15   0.0000000000E+00  -0.7859450850E-01  -0.1160642250E-16   0.8196117973E+01   0.6080518071E-13   0.5337841499E-13  -0.1644992458E-14   0.6379600592E-15  -0.1782848430E-14   0.0000000000E+00
   0.0000000000E+00   0.0000000000E+00   0.8885678291E+00   0.0000000000E+00   0.0000000000E+00  -0.3283766243E-01   0.0000000000E+00   0.0000000000E+00  -0.7859450850E-01   0.8196117973E+01   0.9633284760E-13   0.9370443468E-13   0.6047269674E-16   0.8057864682E-16   0.4467010063E-15   0.0000000000E+00
   0.1270000000E+01   0.0000000000E+00   0.8885678291E+00   0.9000000000E-01   0.0000000000E+00  -0.3283766243E-01   0.1800000000E+00   0.0000000000E+00  -0.7859450850E-01   0.8196117972E+01  -0.2302356320E-13  -0.2631182569E-13   0.3447013571E-15  -0.4953144689E-15  -0.6141412878E-16   0.0000000000E+00
   0.1270000000E+01   0.8885678291E+00   0.8885678291E+00   0.9000000000E-01  -0.3283766243E-01  -0.3283766243E-01   0.1800000000E+00  -0.7859450850E-01  -0.7859450850E-01   0.8196117971E+01   0.7136283563E-13   0.7186844152E-13  -0.1160503409E-14  -0.1257984652E-14  -0.7061974672E-15   0.0000000000E+00
   0.0000000000E+00   0.8885678291E+00   0.8885678291E+00   0.0000000000E+00  -0.3283766243E-01  -0.3283766243E-01   0.0000000000E+00  -0.7859450850E-01  -0.7859450850E-01   0.8196117972E+01   0.4913965019E-13   0.4129859643E-13  -0.1470669428E-14  -0.8343007816E-15   0.5844870415E-16   0.0000000000E+00
   0.2540000000E+01   0.0000000000E+00  -0.7894179451E-16   0.1800000000E+00   0.0000000000E+00  -0.3087055766E-15   0.3600000000E+00   0.0000000000E+00   0.2297637821E-15   0.8196117973E+01  -0.9656486700E-13  -0.9782196695E-13   0.1842287968E-15   0.2212400956E-14   0.1294325472E-15   0.0000000000E+00
   0.2540000000E+01   0.8885678291E+00  -0.6276365960E-16   0.1800000000E+00  -0.3283766243E-01  -0.2174821437E-15   0.3600000000E+00  -0.7859450850E-01   0.1547184841E-15   0.8196117972E+01   0.9237990170E-13   0.9035846806E-13  -0.1799417570E-14   0.9238409821E-15   0.2791625410E-15   0.0000000000E+00
   0.2540000000E+01   0.0000000000E+00   0.8885678291E+00   0.1800000000E+00   0.0000000000E+00  -0.3283766243E-01   0.3600000000E+00   0.0000000000E+00  -0.7859450850E-01   0.8196117972E+01   0.5872165579E-12   0.5844126561E-12   0.2130179633E-15  -0.9628113496E-15   0.1770585250E-15   0.0000000000E+00
   0.2540000000E+01   0.8885678291E+00   0.8885678291E+00   0.1800000000E+00  -0.3283766243E-01  -0.3283766243E-01   0.3600000000E+00  -0.7859450850E-01  -0.7859450850E-01   0.8196117971E+01  -0.9484635449E-13  -0.1026405050E-12  -0.1266249445E-14  -0.2611582160E-15   0.3267885188E-15   0.0000000000E+00
     1     2     3     4     5     6     7     8
     2     9    10     3     6    11    12     7
 VARIABLES = X,Y,Z,DU1,DU2,DU3,U1,U2,U3,S11,S22,S33,S12,S13,S23,MISES
 ZONE, T="0.4000D+01" F=FEPOINT, I=   12 J=    2 ET=BRICK
   0.0000000000E+00   0.0000000000E+00   0.0000000000E+00   0.0000000000E+00   0.0000000000E+00   0.0000000000E+00   0.0000000000E+00   0.0000000000E+00   0.0000000000E+00   0.1104808577E+02  -0.1352591874E-13  -0.1740768794E-13   0.7852756229E-16  -0.1088905794E-14  -0.7828277058E-15   0.0000000000E+00
   0.1360000000E+01   0.0000000000E+00  -0.1024544505E-15   0.9000000000E-01   0.0000000000E+00   0.6573819463E-16   0.2700000000E+00   0.0000000000E+00  -0.1681926451E-15   0.1104808577E+02   0.1561110090E-12   0.1544557573E-12   0.1159867952E-14  -0.3151718739E-15   0.3565678826E-16   0.0000000000E+00
   0.1360000000E+01   0.8590704173E+00  -0.9953955452E-16   0.9000000000E-01  -0.2949741182E-01   0.1849824555E-17   0.2700000000E+00  -0.1114321709E+00  -0.1013893791E-15   0.1104808577E+02   0.1559638292E-12   0.1530970371E-12   0.2784418369E-14  -0.1963690895E-14   0.1450916655E-15   0.0000000000E+00
   0.0000000000E+00   0.8590704173E+00  -0.9334761757E-16   0.0000000000E+00  -0.2949741182E-01   0.5823227322E-16   0.0000000000E+00  -0.1114321709E+00  -0.1515798908E-15   0.1104808577E+02  -0.1319598561E-13  -0.1768355009E-13   0.1203766588E-14   0.5621498139E-17  -0.1796821379E-15   0.0000000000E+00
   0.0000000000E+00   0.0000000000E+00   0.8590704173E+00   0.0000000000E+00   0.0000000000E+00  -0.2949741182E-01   0.0000000000E+00   0.0000000000E+00  -0.1114321709E+00   0.1104808577E+02  -0.1528703834E-13  -0.1385373683E-13  -0.5811324743E-16   0.1489442250E-14   0.1436854797E-15   0.0000000000E+00
   0.1360000000E+01   0.0000000000E+00   0.8590704173E+00   0.9000000000E-01   0.0000000000E+00  -0.2949741182E-01   0.2700000000E+00   0.0000000000E+00  -0.1114321709E+00   0.1104808577E+02   0.1571299295E-12   0.1514649779E-12  -0.1278538222E-14   0.5020392074E-15  -0.7712483805E-15   0.0000000000E+00
   0.1360000000E+01   0.8590704173E+00   0.8590704173E+00   0.9000000000E-01  -0.2949741182E-01  -0.2949741182E-01   0.2700000000E+00  -0.1114321709E+00  -0.1114321709E+00   0.1104808577E+02   0.1584889749E-12   0.1516121577E-12  -0.9873888748E-15  -0.5220013839E-15  -0.6618135032E-15   0.0000000000E+00
   0.0000000000E+00   0.8590704173E+00   0.8590704173E+00   0.0000000000E+00  -0.2949741182E-01  -0.2949741182E-01   0.0000000000E+00  -0.1114321709E+00  -0.1114321709E+00   0.1104808577E+02  -0.1501117619E-13  -0.1418371353E-13   0.9295196502E-15  -0.1363878880E-14   0.7468310474E-15   0.0000000000E+00
   0.2720000000E+01   0.0000000000E+00  -0.1811316199E-15   0.1800000000E+00   0.0000000000E+00  -0.1021898254E-15   0.5400000000E+00   0.0000000000E+00  -0.7894179451E-16   0.1104808577E+02   0.3247717878E-12   0.3225448255E-12   0.1834454731E-17  -0.1407904636E-14   0.2105826156E-15   0.0000000000E+00
   0.2720000000E+01   0.8590704173E+00  -0.1606409610E-15   0.1800000000E+00  -0.2949741182E-01  -0.9787730141E-16   0.5400000000E+00  -0.1114321709E+00  -0.6276365960E-16   0.1104808577E+02   0.3293671640E-12   0.3187025618E-12   0.2125696263E-14  -0.4766260732E-15  -0.8253473497E-15   0.0000000000E+00
   0.2720000000E+01   0.0000000000E+00   0.8590704173E+00   0.1800000000E+00   0.0000000000E+00  -0.2949741182E-01   0.5400000000E+00   0.0000000000E+00  -0.1114321709E+00   0.1104808577E+02   0.3227543250E-12   0.3270546057E-12   0.4067691471E-15  -0.2351830517E-14   0.1610060075E-14   0.0000000000E+00
   0.2720000000E+01   0.8590704173E+00   0.8590704173E+00   0.1800000000E+00  -0.2949741182E-01  -0.2949741182E-01   0.5400000000E+00  -0.1114321709E+00  -0.1114321709E+00   0.1104808577E+02   0.3265965886E-12   0.3224586225E-12   0.1434942703E-17   0.3776253326E-14   0.5741301099E-15   0.0000000000E+00
     1     2     3     4     5     6     7     8
     2     9    10     3     6    11    12     7
 VARIABLES = X,Y,Z,DU1,DU2,DU3,U1,U2,U3,S11,S22,S33,S12,S13,S23,MISES
 ZONE, T="0.5000D+01" F=FEPOINT, I=   12 J=    2 ET=BRICK
   0.0000000000E+00   0.0000000000E+00   0.0000000000E+00   0.0000000000E+00   0.0000000000E+00   0.0000000000E+00   0.0000000000E+00   0.0000000000E+00   0.0000000000E+00   0.1398743099E+02  -0.3783787049E-12  -0.3792786513E-12  -0.2616460223E-16   0.2085059938E-14   0.2143200242E-15   0.0000000000E+00
   0.1450000000E+01   0.0000000000E+00   0.1004529437E-15   0.9000000000E-01   0.0000000000E+00   0.2029073942E-15   0.3600000000E+00   0.0000000000E+00  -0.1024544505E-15   0.1398743099E+02  -0.2814057431E-12  -0.2815137896E-12   0.4624122286E-15  -0.2034505231E-15  -0.9315830613E-15   0.0000000000E+00
   0.1450000000E+01   0.8323885354E+00   0.1492174763E-17   0.9000000000E-01  -0.2668188190E-01   0.1010317293E-15   0.3600000000E+00  -0.1409295827E+00  -0.9953955452E-16   0.1398743098E+02  -0.4045154108E-12  -0.4053217611E-12  -0.1530963513E-15   0.9137155572E-15  -0.1413622651E-15   0.0000000000E+00
   0.0000000000E+00   0.8323885354E+00   0.1383642105E-16   0.0000000000E+00  -0.2668188190E-01   0.1071840386E-15   0.0000000000E+00  -0.1409295827E+00  -0.9334761757E-16   0.1398743098E+02  -0.3168238736E-12  -0.3173746681E-12  -0.1049825124E-14  -0.8955970048E-15   0.6748382440E-16   0.0000000000E+00
   0.0000000000E+00   0.0000000000E+00   0.8323885354E+00   0.0000000000E+00   0.0000000000E+00  -0.2668188190E-01   0.0000000000E+00   0.0000000000E+00  -0.1409295827E+00   0.1398743098E+02   0.4478184120E-13   0.4779131009E-13   0.1800227316E-15   0.2453346555E-14   0.6712805147E-15   0.0000000000E+00
   0.1450000000E+01   0.0000000000E+00   0.8323885354E+00   0.9000000000E-01   0.0000000000E+00  -0.2668188190E-01   0.3600000000E+00   0.0000000000E+00  -0.1409295827E+00   0.1398743098E+02  -0.2107314893E-12  -0.2096299002E-12   0.3273872333E-15   0.5410950913E-16  -0.8681922719E-16   0.0000000000E+00
   0.1450000000E+01   0.8323885354E+00   0.8323885354E+00   0.9000000000E-01  -0.2668188190E-01  -0.2668188190E-01   0.3600000000E+00  -0.1409295827E+00  -0.1409295827E+00   0.1398743098E+02  -0.8692346746E-13  -0.8652042032E-13   0.1715699816E-16   0.1195588904E-14   0.7034015688E-15   0.0000000000E+00
   0.0000000000E+00   0.8323885354E+00   0.8323885354E+00   0.0000000000E+00  -0.2668188190E-01  -0.2668188190E-01   0.0000000000E+00  -0.1409295827E+00  -0.1409295827E+00   0.1398743098E+02  -0.1712216708E-13  -0.1376342723E-13   0.7720230835E-15  -0.6433927530E-15   0.5244443149E-15   0.0000000000E+00
   0.2900000000E+01   0.0000000000E+00   0.9480614622E-16   0.1800000000E+00   0.0000000000E+00   0.2759377661E-15   0.7200000000E+00   0.0000000000E+00  -0.1811316199E-15   0.1398743099E+02  -0.5725117677E-12  -0.5746212303E-12   0.3555722905E-15  -0.2588408382E-15  -0.5895087662E-15   0.0000000000E+00
   0.2900000000E+01   0.8323885354E+00   0.2103071563E-16   0.1800000000E+00  -0.2668188190E-01   0.1816716766E-15   0.7200000000E+00  -0.1409295827E+00  -0.1606409610E-15   0.1398743098E+02   0.2848365897E-12   0.2875901868E-12   0.1482156523E-15  -0.4147991383E-15  -0.1661076876E-15   0.0000000000E+00
   0.2900000000E+01   0.0000000000E+00   0.8323885354E+00   0.1800000000E+00   0.0000000000E+00  -0.2668188190E-01   0.7200000000E+00   0.0000000000E+00  -0.1409295827E+00   0.1398743098E+02   0.3107987178E-12   0.3138079303E-12   0.6121681020E-15  -0.1120073907E-15   0.1978504639E-16   0.0000000000E+00
   0.2900000000E+01   0.8323885354E+00   0.8323885354E+00   0.1800000000E+00  -0.2668188190E-01  -0.2668188190E-01   0.7200000000E+00  -0.1409295827E+00  -0.1409295827E+00   0.1398743098E+02  -0.5514130497E-12  -0.5435391193E-12  -0.6002927200E-15  -0.1032566963E-15   0.4431861248E-15   0.0000000000E+00
     1     2     3     4     5     6     7     8
     2     9    10     3     6    11    12     7
 VARIABLES = X,Y,Z,DU1,DU2,DU3,U1,U2,U3,S11,S22,S33,S12,S13,S23,MISES
 ZONE, T="0.6000D+01" F=FEPOINT, I=   12 J=    2 ET=BRICK
   0.0000000000E+00   0.0000000000E+00   0.0000000000E+00   0.0000000000E+00   0.0000000000E+00   0.0000000000E+00   0.0000000000E+00   0.0000000000E+00   0.0000000000E+00   0.1702432461E+02  -0.6776683104E-12  -0.6721116917E-12   0.1224579769E-15   0.4339802279E-14   0.2083128965E-14   0.0000000000E+00
   0.1540000000E+01   0.0000000000E+00   0.1927390206E-15   0.9000000000E-01   0.0000000000E+00   0.9228607692E-16   0.4500000000E+00   0.0000000000E+00   0.1004529437E-15   0.1702432461E+02   0.1605977058E-12   0.1601484386E-12  -0.4439073342E-16   0.1254705986E-14  -0.1538674605E-14   0.0000000000E+00
   0.1540000000E+01   0.8081061614E+00   0.7754479537E-18   0.9000000000E-01  -0.2428237395E-01  -0.7167268098E-18   0.4500000000E+00  -0.1676114646E+00   0.1492174763E-17   0.1702432461E+02  -0.1494797007E-12  -0.1448521961E-12   0.7374187875E-15  -0.6959112610E-15  -0.8585043709E-15   0.0000000000E+00
   0.0000000000E+00   0.8081061614E+00   0.2563005125E-15   0.0000000000E+00  -0.2428237395E-01   0.2424640915E-15   0.0000000000E+00  -0.1676114646E+00   0.1383642105E-16   0.1702432461E+02  -0.2020296023E-13  -0.2334157318E-13  -0.3669455637E-15  -0.5109792574E-14   0.8508285235E-15   0.0000000000E+00
   0.0000000000E+00   0.0000000000E+00   0.8081061614E+00   0.0000000000E+00   0.0000000000E+00  -0.2428237395E-01   0.0000000000E+00   0.0000000000E+00  -0.1676114646E+00   0.1702432461E+02  -0.5147110734E-12  -0.5078704563E-12  -0.3457899932E-15  -0.1609931239E-14  -0.5824743069E-15   0.0000000000E+00
   0.1540000000E+01   0.0000000000E+00   0.8081061614E+00   0.9000000000E-01   0.0000000000E+00  -0.2428237395E-01   0.4500000000E+00   0.0000000000E+00  -0.1676114646E+00   0.1702432461E+02  -0.7476179235E-13  -0.7898673690E-13  -0.3133426371E-15  -0.5419378806E-15   0.2032224809E-15   0.0000000000E+00
   0.1540000000E+01   0.8081061614E+00   0.8081061614E+00   0.9000000000E-01  -0.2428237395E-01  -0.2428237395E-01   0.4500000000E+00  -0.1676114646E+00  -0.1676114646E+00   0.1702432461E+02  -0.5032424202E-12  -0.5029944330E-12   0.9696476849E-15   0.1654843977E-15   0.8833927145E-15   0.0000000000E+00
   0.0000000000E+00   0.8081061614E+00   0.8081061614E+00   0.0000000000E+00  -0.2428237395E-01  -0.2428237395E-01   0.0000000000E+00  -0.1676114646E+00  -0.1676114646E+00   0.1702432461E+02  -0.9442131132E-14  -0.1099482563E-13   0.3675055656E-14   0.6691938442E-15  -0.1814774748E-14   0.0000000000E+00
   0.3080000000E+01   0.0000000000E+00   0.3600687544E-16   0.1800000000E+00   0.0000000000E+00  -0.5879927078E-16   0.9000000000E+00   0.0000000000E+00   0.9480614622E-16   0.1702432461E+02  -0.1423305203E-12  -0.1445337626E-12   0.1211396572E-15  -0.3774380526E-14   0.7466013824E-15   0.0000000000E+00
   0.3080000000E+01   0.8081061614E+00   0.1354084776E-15   0.1800000000E+00  -0.2428237395E-01   0.1143777620E-15   0.9000000000E+00  -0.1676114646E+00   0.2103071563E-16   0.1702432461E+02  -0.3240603501E-12  -0.3284191587E-12   0.2174162239E-14   0.3760906550E-14   0.1593173822E-15   0.0000000000E+00
   0.3080000000E+01   0.0000000000E+00   0.8081061614E+00   0.1800000000E+00   0.0000000000E+00  -0.2428237395E-01   0.9000000000E+00   0.0000000000E+00  -0.1676114646E+00   0.1702432461E+02  -0.3602116224E-12  -0.3625595671E-12   0.3719926180E-15  -0.1417934742E-14   0.1174522142E-14   0.0000000000E+00
   0.3080000000E+01   0.8081061614E+00   0.8081061614E+00   0.1800000000E+00  -0.2428237395E-01  -0.2428237395E-01   0.9000000000E+00  -0.1676114646E+00  -0.1676114646E+00   0.1702432461E+02   0.5304573449E-12   0.5301590374E-12  -0.1082872387E-14  -0.2952885499E-15   0.5872381414E-15   0.0000000000E+00
     1     2     3     4     5     6     7     8
     2     9    10     3     6    11    12     7
 VARIABLES = X,Y,Z,DU1,DU2,DU3,U1,U2,U3,S11,S22,S33,S12,S13,S23,MISES
 ZONE, T="0.7000D+01" F=FEPOINT, I=   12 J=    2 ET=BRICK
   0.0000000000E+00   0.0000000000E+00   0.0000000000E+00   0.0000000000E+00   0.0000000000E+00   0.0000000000E+00   0.0000000000E+00   0.0000000000E+00   0.0000000000E+00   0.2016635058E+02  -0.1106193661E-12  -0.1046906295E-12   0.4172529873E-15   0.2334396912E-16  -0.1016527464E-14   0.0000000000E+00
   0.1630000000E+01   0.0000000000E+00  -0.4760072495E-17   0.9000000000E-01   0.0000000000E+00  -0.1974990931E-15   0.5400000000E+00   0.0000000000E+00   0.1927390206E-15   0.2016635058E+02  -0.2115450185E-12  -0.2130375343E-12  -0.2226675200E-14  -0.1274791515E-14  -0.8984913708E-15   0.0000000000E+00
   0.1630000000E+01   0.7858886248E+00  -0.1311957092E-15   0.9000000000E-01  -0.2221753661E-01  -0.1319711571E-15   0.5400000000E+00  -0.1918938386E+00   0.7754479537E-18   0.2016635057E+02  -0.2835911399E-12  -0.2848631212E-12  -0.3085852416E-14   0.1074067598E-14   0.4130454727E-15   0.0000000000E+00
   0.0000000000E+00   0.7858886248E+00  -0.1079324185E-15   0.0000000000E+00  -0.2221753661E-01  -0.3642329310E-15   0.0000000000E+00  -0.1918938386E+00   0.2563005125E-15   0.2016635057E+02   0.1021517535E-12   0.1030892063E-12   0.1025389660E-14  -0.8844267742E-16   0.7948011712E-15   0.0000000000E+00
   0.0000000000E+00   0.0000000000E+00   0.7858886248E+00   0.0000000000E+00   0.0000000000E+00  -0.2221753661E-01   0.0000000000E+00   0.0000000000E+00  -0.1918938386E+00   0.2016635057E+02   0.7959249546E-13   0.7940562686E-13  -0.3115600305E-15  -0.2271379809E-15  -0.2299425183E-15   0.0000000000E+00
   0.1630000000E+01   0.0000000000E+00   0.7858886248E+00   0.9000000000E-01   0.0000000000E+00  -0.2221753661E-01   0.5400000000E+00   0.0000000000E+00  -0.1918938386E+00   0.2016635057E+02  -0.4729052337E-12  -0.4764263338E-12   0.1524124458E-14  -0.2414855263E-14  -0.6261337864E-15   0.0000000000E+00
   0.1630000000E+01   0.7858886248E+00   0.7858886248E+00   0.9000000000E-01  -0.2221753661E-01  -0.2221753661E-01   0.5400000000E+00  -0.1918938386E+00  -0.1918938386E+00   0.2016635057E+02  -0.2090713901E-12  -0.2129754938E-12   0.4346497477E-15   0.1059788932E-14   0.6854030570E-15   0.0000000000E+00
   0.0000000000E+00   0.7858886248E+00   0.7858886248E+00   0.0000000000E+00  -0.2221753661E-01  -0.2221753661E-01   0.0000000000E+00  -0.1918938386E+00  -0.1918938386E+00   0.2016635057E+02  -0.1045041587E-12  -0.1104263133E-12  -0.1360080496E-14  -0.1568574976E-15   0.1581386117E-14   0.0000000000E+00
   0.3260000000E+01   0.0000000000E+00   0.1235045318E-16   0.1800000000E+00   0.0000000000E+00  -0.2365642226E-16   0.1080000000E+01   0.0000000000E+00   0.3600687544E-16   0.2016635058E+02   0.6581600820E-13   0.6824321677E-13   0.2950693464E-15   0.1776706127E-15  -0.1473285393E-14   0.0000000000E+00
   0.3260000000E+01   0.7858886248E+00  -0.1679832918E-15   0.1800000000E+00  -0.2221753661E-01  -0.3033917694E-15   0.1080000000E+01  -0.1918938386E+00   0.1354084776E-15   0.2016635057E+02  -0.2895480466E-12  -0.2927743764E-12  -0.2031421759E-14  -0.1337228055E-14   0.1745105433E-15   0.0000000000E+00
   0.3260000000E+01   0.0000000000E+00   0.7858886248E+00   0.1800000000E+00   0.0000000000E+00  -0.2221753661E-01   0.1080000000E+01   0.0000000000E+00  -0.1918938386E+00   0.2016635057E+02  -0.6401187710E-12  -0.6434260787E-12  -0.3873914840E-15  -0.1851974935E-14  -0.5691681664E-16   0.0000000000E+00
   0.3260000000E+01   0.7858886248E+00   0.7858886248E+00   0.1800000000E+00  -0.2221753661E-01  -0.2221753661E-01   0.1080000000E+01  -0.1918938386E+00  -0.1918938386E+00   0.2016635057E+02   0.7123393416E-13   0.6751580376E-13  -0.1517820439E-14  -0.1297370566E-14   0.1590879120E-14   0.0000000000E+00
     1     2     3     4     5     6     7     8
     2     9    10     3     6    11    12     7
 VARIABLES = X,Y,Z,DU1,DU2,DU3,U1,U2,U3,S11,S22,S33,S12,S13,S23,MISES
 ZONE, T="0.8000D+01" F=FEPOINT, I=   12 J=    2 ET=BRICK
   0.0000000000E+00   0.0000000000E+00   0.0000000000E+00   0.0000000000E+00   0.0000000000E+00   0.0000000000E+00   0.0000000000E+00   0.0000000000E+00   0.0000000000E+00   0.2341916976E+02   0.8565482926E-12   0.8558233181E-12   0.3171238913E-15  -0.5009359813E-14  -0.2117402510E-14   0.0000000000E+00
   0.1720000000E+01   0.0000000000E+00  -0.2501123032E-15   0.9000000000E-01   0.0000000000E+00  -0.2453522308E-15   0.6300000000E+00   0.0000000000E+00  -0.4760072495E-17   0.2341916976E+02  -0.1072508538E-11  -0.1076498292E-11  -0.7697263087E-15  -0.1701031942E-14   0.2600766436E-15   0.0000000000E+00
   0.1720000000E+01   0.7654632242E+00  -0.2189440975E-15   0.9000000000E-01  -0.2042540058E-01  -0.8774838835E-16   0.6300000000E+00  -0.2141113752E+00  -0.1311957092E-15   0.2341916976E+02  -0.3467574813E-12  -0.3516622015E-12   0.2979809838E-15   0.2124441132E-14  -0.8888242883E-15   0.0000000000E+00
   0.0000000000E+00   0.7654632242E+00  -0.2815915953E-15   0.0000000000E+00  -0.2042540058E-01  -0.1736591768E-15   0.0000000000E+00  -0.2141113752E+00  -0.1079324185E-15   0.2341916976E+02  -0.5909243776E-12  -0.5844555014E-12   0.5375480086E-14   0.1324243530E-14   0.3580823220E-16   0.0000000000E+00
   0.0000000000E+00   0.0000000000E+00   0.7654632242E+00   0.0000000000E+00   0.0000000000E+00  -0.2042540058E-01   0.0000000000E+00   0.0000000000E+00  -0.2141113752E+00   0.2341916976E+02  -0.2341810774E-12  -0.2413727098E-12  -0.4612460358E-16  -0.6720052691E-14  -0.1166570099E-14   0.0000000000E+00
   0.1720000000E+01   0.0000000000E+00   0.7654632242E+00   0.9000000000E-01   0.0000000000E+00  -0.2042540058E-01   0.6300000000E+00   0.0000000000E+00  -0.2141113752E+00   0.2341916976E+02   0.1067161366E-12   0.1090818021E-12   0.6663771518E-16  -0.1802510162E-14   0.1287561242E-14   0.0000000000E+00
   0.1720000000E+01   0.7654632242E+00   0.7654632242E+00   0.9000000000E-01  -0.2042540058E-01  -0.2042540058E-01   0.6300000000E+00  -0.2141113752E+00  -0.2141113752E+00   0.2341916976E+02  -0.3354808216E-12  -0.3362759243E-12  -0.2326653234E-14  -0.1688184830E-14   0.1386603105E-15   0.0000000000E+00
   0.0000000000E+00   0.7654632242E+00   0.7654632242E+00   0.0000000000E+00  -0.2042540058E-01  -0.2042540058E-01   0.0000000000E+00  -0.2141113752E+00  -0.2141113752E+00   0.2341916976E+02  -0.3020563612E-12  -0.3009297027E-12  -0.4236299693E-14  -0.6292967587E-15   0.9866406430E-15   0.0000000000E+00