 VARIABLES = X,Y,Z,DU1,DU2,DU3,U1,U2,U3,S11,S22,S33,S12,S13,S23,SMISES
 ZONE, T="0.1000D-01" F=FEPOINT, I=   12 J=    2 ET=BRICK
   0.0000000000E+00   0.0000000000E+00   0.0000000000E+00   0.0000000000E+00   0.0000000000E+00   0.0000000000E+00   0.0000000000E+00   0.0000000000E+00   0.0000000000E+00   0.0000000000E+00   0.0000000000E+00   0.0000000000E+00   0.0000000000E+00   0.0000000000E+00   0.0000000000E+00   0.0000000000E+00
   0.1000000000E+01   0.0000000000E+00   0.0000000000E+00   0.0000000000E+00   0.0000000000E+00   0.0000000000E+00   0.0000000000E+00   0.0000000000E+00   0.0000000000E+00   0.7408226459E-01   0.3648827958E-01   0.3648827958E-01  -0.1941145663E-18  -0.9508041980E-19   0.0000000000E+00   0.3759398502E-01
   0.1000000000E+01   0.1000000000E+01   0.0000000000E+00   0.0000000000E+00   0.0000000000E+00   0.0000000000E+00   0.0000000000E+00   0.0000000000E+00   0.0000000000E+00   0.7408226459E-01   0.3648827957E-01   0.3648827957E-01  -0.1941145663E-18  -0.1917131012E-18   0.0000000000E+00   0.3759398502E-01
   0.0000000000E+00   0.1000000000E+01   0.0000000000E+00   0.0000000000E+00   0.0000000000E+00   0.0000000000E+00   0.0000000000E+00   0.0000000000E+00   0.0000000000E+00   0.0000000000E+00   0.0000000000E+00   0.0000000000E+00   0.0000000000E+00   0.0000000000E+00   0.0000000000E+00   0.0000000000E+00
   0.0000000000E+00   0.0000000000E+00   0.1000000000E+01   0.0000000000E+00   0.0000000000E+00   0.0000000000E+00   0.0000000000E+00   0.0000000000E+00   0.0000000000E+00   0.0000000000E+00   0.0000000000E+00   0.0000000000E+00   0.0000000000E+00   0.0000000000E+00   0.0000000000E+00   0.0000000000E+00
   0.1000000000E+01   0.0000000000E+00   0.1000000000E+01   0.0000000000E+00   0.0000000000E+00   0.0000000000E+00   0.0000000000E+00   0.0000000000E+00   0.0000000000E+00   0.7408226459E-01   0.3648827957E-01   0.3648827957E-01  -0.2182492216E-18  -0.9508041979E-19   0.0000000000E+00   0.3759398502E-01
   0.1000000000E+01   0.1000000000E+01   0.1000000000E+01   0.0000000000E+00   0.0000000000E+00   0.0000000000E+00   0.0000000000E+00   0.0000000000E+00   0.0000000000E+00   0.7408226459E-01   0.3648827957E-01   0.3648827957E-01  -0.2182492216E-18  -0.1917131011E-18   0.0000000000E+00   0.3759398501E-01
   0.0000000000E+00   0.1000000000E+01   0.1000000000E+01   0.0000000000E+00   0.0000000000E+00   0.0000000000E+00   0.0000000000E+00   0.0000000000E+00   0.0000000000E+00   0.0000000000E+00   0.0000000000E+00   0.0000000000E+00   0.0000000000E+00   0.0000000000E+00   0.0000000000E+00   0.0000000000E+00
   0.2000100000E+01   0.0000000000E+00   0.0000000000E+00   0.1000000000E-03   0.0000000000E+00   0.0000000000E+00   0.0000000000E+00   0.0000000000E+00   0.0000000000E+00   0.1481645292E+00   0.7297655915E-01   0.7297655915E-01  -0.4364984431E-18  -0.3834262023E-18   0.0000000000E+00   0.7518797003E-01
   0.2000100000E+01   0.1000000000E+01   0.0000000000E+00   0.1000000000E-03   0.0000000000E+00   0.0000000000E+00   0.0000000000E+00   0.0000000000E+00   0.0000000000E+00   0.1481645292E+00   0.7297655915E-01   0.7297655915E-01  -0.4364984431E-18  -0.6357758924E-18   0.0000000000E+00   0.7518797003E-01
   0.2000100000E+01   0.0000000000E+00   0.1000000000E+01   0.1000000000E-03   0.0000000000E+00   0.0000000000E+00   0.0000000000E+00   0.0000000000E+00   0.0000000000E+00   0.1481645292E+00   0.7297655915E-01   0.7297655915E-01  -0.6499965570E-18  -0.3834262023E-18   0.0000000000E+00   0.7518797003E-01
   0.2000100000E+01   0.1000000000E+01   0.1000000000E+01   0.1000000000E-03   0.0000000000E+00   0.0000000000E+00   0.0000000000E+00   0.0000000000E+00   0.0000000000E+00   0.1481645292E+00   0.7297655914E-01   0.7297655914E-01  -0.6499965569E-18  -0.6357758924E-18   0.0000000000E+00   0.7518797003E-01
     1     2     3     4     5     6     7     8
     2     9    10     3     6    11    12     7
 VARIABLES = X,Y,Z,DU1,DU2,DU3,U1,U2,U3,S11,S22,S33,S12,S13,S23,SMISES
 ZONE, T="0.2000D-01" F=FEPOINT, I=   12 J=    2 ET=BRICK
   0.0000000000E+00   0.0000000000E+00   0.0000000000E+00   0.0000000000E+00   0.0000000000E+00   0.0000000000E+00   0.0000000000E+00   0.0000000000E+00   0.0000000000E+00   0.1512337062E-02  -0.7073874087E-03  -0.7073874087E-03   0.1371739786E-03   0.1371739786E-03  -0.3541837799E-14   0.2296500053E-02
   0.1000002222E+01   0.1094648387E-05   0.1094648387E-05   0.2222467938E-05   0.1094648387E-05   0.1094648387E-05   0.0000000000E+00   0.0000000000E+00   0.0000000000E+00   0.1449691823E+00   0.6813512444E-01   0.6813512444E-01   0.1371739786E-03   0.1371739786E-03  -0.1062553698E-13   0.7686558432E-01
   0.1000002222E+01   0.9999989054E+00   0.1094648387E-05   0.2222467938E-05  -0.1094648387E-05   0.1094648387E-05   0.0000000000E+00   0.0000000000E+00   0.0000000000E+00   0.1449691823E+00   0.6813512443E-01   0.6813512443E-01  -0.1371739786E-03   0.1371739786E-03  -0.8366455481E-19   0.7686558432E-01
   0.0000000000E+00   0.1000000000E+01   0.0000000000E+00   0.0000000000E+00   0.0000000000E+00   0.0000000000E+00   0.0000000000E+00   0.0000000000E+00   0.0000000000E+00   0.1512337062E-02  -0.7073874087E-03  -0.7073874087E-03  -0.1371739786E-03   0.1371739786E-03  -0.2216511936E-19   0.2296500053E-02
   0.0000000000E+00   0.0000000000E+00   0.1000000000E+01   0.0000000000E+00   0.0000000000E+00   0.0000000000E+00   0.0000000000E+00   0.0000000000E+00   0.0000000000E+00   0.1512337062E-02  -0.7073874087E-03  -0.7073874087E-03   0.1371739786E-03  -0.1371739786E-03  -0.2805344511E-19   0.2296500053E-02
   0.1000002222E+01   0.1094648387E-05   0.9999989054E+00   0.2222467938E-05   0.1094648387E-05  -0.1094648387E-05   0.0000000000E+00   0.0000000000E+00   0.0000000000E+00   0.1449691823E+00   0.6813512443E-01   0.6813512443E-01   0.1371739786E-03  -0.1371739786E-03  -0.6023370850E-19   0.7686558432E-01
   0.1000002222E+01   0.9999989054E+00   0.9999989054E+00   0.2222467938E-05  -0.1094648387E-05  -0.1094648387E-05   0.0000000000E+00   0.0000000000E+00   0.0000000000E+00   0.1449691823E+00   0.6813512443E-01   0.6813512443E-01  -0.1371739786E-03  -0.1371739786E-03   0.1062536600E-13   0.7686558431E-01
   0.0000000000E+00   0.1000000000E+01   0.1000000000E+01   0.0000000000E+00   0.0000000000E+00   0.0000000000E+00   0.0000000000E+00   0.0000000000E+00   0.0000000000E+00   0.1512337062E-02  -0.7073874087E-03  -0.7073874087E-03  -0.1371739786E-03  -0.1371739786E-03   0.3541785431E-14   0.2296500053E-02
   0.2000200000E+01   0.2189296775E-05   0.2189296775E-05   0.1000000000E-03   0.2189296775E-05   0.2189296775E-05   0.1000000000E-03   0.0000000000E+00   0.0000000000E+00   0.2884260275E+00   0.1369776363E+00   0.1369776363E+00   0.1371739786E-03   0.1371739786E-03  -0.1770921966E-13   0.1514495094E+00
   0.2000200000E+01   0.9999978107E+00   0.2189296774E-05   0.1000000000E-03  -0.2189296774E-05   0.2189296774E-05   0.1000000000E-03   0.0000000000E+00   0.0000000000E+00   0.2884260275E+00   0.1369776363E+00   0.1369776363E+00  -0.1371739786E-03   0.1371739786E-03   0.2615963296E-19   0.1514495094E+00
   0.2000200000E+01   0.2189296774E-05   0.9999978107E+00   0.1000000000E-03   0.2189296774E-05  -0.2189296774E-05   0.1000000000E-03   0.0000000000E+00   0.0000000000E+00   0.2884260275E+00   0.1369776363E+00   0.1369776363E+00   0.1371739786E-03  -0.1371739786E-03  -0.4639431066E-19   0.1514495094E+00
   0.2000200000E+01   0.9999978107E+00   0.9999978107E+00   0.1000000000E-03  -0.2189296774E-05  -0.2189296774E-05   0.1000000000E-03   0.0000000000E+00   0.0000000000E+00   0.2884260275E+00   0.1369776363E+00   0.1369776363E+00  -0.1371739786E-03  -0.1371739786E-03   0.1770912635E-13   0.1514495094E+00
     1     2     3     4     5     6     7     8
     2     9    10     3     6    11    12     7
 VARIABLES = X,Y,Z,DU1,DU2,DU3,U1,U2,U3,S11,S22,S33,S12,S13,S23,SMISES
 ZONE, T="0.3000D-01" F=FEPOINT, I=   12 J=    2 ET=BRICK
   0.0000000000E+00  -0.1710640290E-07  -0.1710640290E-07   0.0000000000E+00  -0.1710640290E-07  -0.1710640290E-07   0.0000000000E+00   0.0000000000E+00   0.0000000000E+00   0.5586216341E-02  -0.2352506686E-02  -0.2352506686E-02   0.4869140327E-03   0.4869140327E-03  -0.1227540923E-13   0.8209188689E-02
   0.1000008002E+01   0.3868467712E-05   0.3868467712E-05   0.5779863689E-05   0.2773819325E-05   0.2773819325E-05   0.2222467938E-05   0.1094648387E-05   0.1094648387E-05   0.2109544953E+00   0.9235529553E-01   0.9235529553E-01   0.4869140326E-03   0.4869140326E-03  -0.3736415649E-13   0.1187131276E+00
   0.1000008002E+01   0.9999961315E+00   0.3868467712E-05   0.5779863689E-05  -0.2773819325E-05   0.2773819325E-05   0.2222467938E-05  -0.1094648387E-05   0.1094648387E-05   0.2109544953E+00   0.9235529552E-01   0.9235529552E-01  -0.4869140327E-03   0.4869140326E-03  -0.3807145964E-18   0.1187131276E+00
   0.0000000000E+00   0.1000000017E+01  -0.1710640290E-07   0.0000000000E+00   0.1710640290E-07  -0.1710640290E-07   0.0000000000E+00   0.0000000000E+00   0.0000000000E+00   0.5586216341E-02  -0.2352506686E-02  -0.2352506686E-02  -0.4869140327E-03   0.4869140327E-03  -0.1132307724E-18   0.8209188689E-02
   0.0000000000E+00  -0.1710640290E-07   0.1000000017E+01   0.0000000000E+00  -0.1710640290E-07   0.1710640290E-07   0.0000000000E+00   0.0000000000E+00   0.0000000000E+00   0.5586216341E-02  -0.2352506686E-02  -0.2352506686E-02   0.4869140327E-03  -0.4869140327E-03  -0.1990620486E-18   0.8209188689E-02
   0.1000008002E+01   0.3868467712E-05   0.9999961315E+00   0.5779863689E-05   0.2773819325E-05  -0.2773819325E-05   0.2222467938E-05   0.1094648387E-05  -0.1094648387E-05   0.2109544953E+00   0.9235529552E-01   0.9235529552E-01   0.4869140326E-03  -0.4869140327E-03  -0.4799248602E-18   0.1187131276E+00
   0.1000008002E+01   0.9999961315E+00   0.9999961315E+00   0.5779863689E-05  -0.2773819324E-05  -0.2773819324E-05   0.2222467938E-05  -0.1094648387E-05  -0.1094648387E-05   0.2109544953E+00   0.9235529552E-01   0.9235529552E-01  -0.4869140327E-03  -0.4869140327E-03   0.3736325094E-13   0.1187131276E+00
   0.0000000000E+00   0.1000000017E+01   0.1000000017E+01   0.0000000000E+00   0.1710640290E-07   0.1710640290E-07   0.0000000000E+00   0.0000000000E+00   0.0000000000E+00   0.5586216340E-02  -0.2352506686E-02  -0.2352506686E-02  -0.4869140327E-03  -0.4869140327E-03   0.1227510386E-13   0.8209188689E-02
   0.2000300000E+01   0.7754041827E-05   0.7754041827E-05   0.1000000000E-03   0.5564745052E-05   0.5564745052E-05   0.2000000000E-03   0.2189296775E-05   0.2189296775E-05   0.4163227742E+00   0.1870630977E+00   0.1870630977E+00   0.4869140327E-03   0.4869140327E-03  -0.6245287947E-13   0.2292689838E+00
   0.2000300000E+01   0.9999922460E+00   0.7754041826E-05   0.1000000000E-03  -0.5564745052E-05   0.5564745052E-05   0.2000000000E-03  -0.2189296774E-05   0.2189296774E-05   0.4163227742E+00   0.1870630977E+00   0.1870630977E+00  -0.4869140327E-03   0.4869140326E-03  -0.4215194653E-18   0.2292689838E+00
   0.2000300000E+01   0.7754041826E-05   0.9999922460E+00   0.1000000000E-03   0.5564745052E-05  -0.5564745052E-05   0.2000000000E-03   0.2189296774E-05  -0.2189296774E-05   0.4163227742E+00   0.1870630977E+00   0.1870630977E+00   0.4869140326E-03  -0.4869140327E-03  -0.5165062578E-18   0.2292689838E+00
   0.2000300000E+01   0.9999922460E+00   0.9999922460E+00   0.1000000000E-03  -0.5564745052E-05  -0.5564745052E-05   0.2000000000E-03  -0.2189296774E-05  -0.2189296774E-05   0.4163227742E+00   0.1870630977E+00   0.1870630977E+00  -0.4869140326E-03  -0.4869140326E-03   0.6245172617E-13   0.2292689838E+00
     1     2     3     4     5     6     7     8
     2     9    10     3     6    11    12     7
 VARIABLES = X,Y,Z,DU1,DU2,DU3,U1,U2,U3,S11,S22,S33,S12,S13,S23,SMISES
 ZONE, T="0.4000D-01" F=FEPOINT, I=   12 J=    2 ET=BRICK
   0.0000000000E+00  -0.8447845111E-07  -0.8447845111E-07   0.0000000000E+00  -0.6737204821E-07  -0.6737204821E-07   0.0000000000E+00  -0.1710640290E-07  -0.1710640290E-07   0.1330338028E-01  -0.4891697135E-02  -0.4891697135E-02   0.1104771028E-02   0.1104771028E-02  -0.2702730863E-13   0.1880254232E-01
   0.1000018491E+01   0.8731594658E-05   0.8731594658E-05   0.1048869603E-04   0.4863126946E-05   0.4863126946E-05   0.8002331627E-05   0.3868467712E-05   0.3868467712E-05   0.2708409890E+00   0.1073348314E+00   0.1073348314E+00   0.1104771028E-02   0.1104771028E-02  -0.8378969548E-13   0.1637699892E+00
   0.1000018491E+01   0.9999912684E+00   0.8731594658E-05   0.1048869603E-04  -0.4863126946E-05   0.4863126946E-05   0.8002331627E-05  -0.3868467712E-05   0.3868467712E-05   0.2708409890E+00   0.1073348314E+00   0.1073348314E+00  -0.1104771028E-02   0.1104771028E-02  -0.5567344767E-18   0.1637699891E+00
   0.0000000000E+00   0.1000000084E+01  -0.8447845111E-07   0.0000000000E+00   0.6737204820E-07  -0.6737204820E-07   0.0000000000E+00   0.1710640290E-07  -0.1710640290E-07   0.1330338028E-01  -0.4891697135E-02  -0.4891697135E-02  -0.1104771028E-02   0.1104771028E-02  -0.3258653358E-19   0.1880254232E-01
   0.0000000000E+00  -0.8447845111E-07   0.1000000084E+01   0.0000000000E+00  -0.6737204820E-07   0.6737204820E-07   0.0000000000E+00  -0.1710640290E-07   0.1710640290E-07   0.1330338028E-01  -0.4891697135E-02  -0.4891697135E-02   0.1104771028E-02  -0.1104771028E-02  -0.1140308928E-18   0.1880254232E-01
   0.1000018491E+01   0.8731594658E-05   0.9999912684E+00   0.1048869603E-04   0.4863126946E-05  -0.4863126946E-05   0.8002331627E-05   0.3868467712E-05  -0.3868467712E-05   0.2708409890E+00   0.1073348314E+00   0.1073348314E+00   0.1104771028E-02  -0.1104771028E-02  -0.7057332747E-18   0.1637699891E+00
   0.1000018491E+01   0.9999912684E+00   0.9999912684E+00   0.1048869603E-04  -0.4863126946E-05  -0.4863126946E-05   0.8002331626E-05  -0.3868467712E-05  -0.3868467712E-05   0.2708409890E+00   0.1073348314E+00   0.1073348314E+00  -0.1104771028E-02  -0.1104771028E-02   0.8378840713E-13   0.1637699891E+00
   0.0000000000E+00   0.1000000084E+01   0.1000000084E+01   0.0000000000E+00   0.6737204820E-07   0.6737204820E-07   0.0000000000E+00   0.1710640290E-07   0.1710640290E-07   0.1330338028E-01  -0.4891697135E-02  -0.4891697135E-02  -0.1104771028E-02  -0.1104771028E-02   0.2702717707E-13   0.1880254232E-01
   0.2000400000E+01   0.1754766777E-04   0.1754766777E-04   0.1000000000E-03   0.9793625940E-05   0.9793625940E-05   0.3000000000E-03   0.7754041827E-05   0.7754041827E-05   0.5283785977E+00   0.2195613599E+00   0.2195613599E+00   0.1104771028E-02   0.1104771028E-02  -0.1405523771E-12   0.3088528096E+00
   0.2000400000E+01   0.9999824523E+00   0.1754766777E-04   0.1000000000E-03  -0.9793625940E-05   0.9793625940E-05   0.3000000000E-03  -0.7754041826E-05   0.7754041826E-05   0.5283785977E+00   0.2195613599E+00   0.2195613599E+00  -0.1104771028E-02   0.1104771028E-02  -0.1301827057E-17   0.3088528096E+00
   0.2000400000E+01   0.1754766777E-04   0.9999824523E+00   0.1000000000E-03   0.9793625940E-05  -0.9793625940E-05   0.3000000000E-03   0.7754041826E-05  -0.7754041826E-05   0.5283785977E+00   0.2195613599E+00   0.2195613599E+00   0.1104771028E-02  -0.1104771028E-02  -0.1438308316E-17   0.3088528096E+00
   0.2000400000E+01   0.9999824523E+00   0.9999824523E+00   0.1000000000E-03  -0.9793625939E-05  -0.9793625939E-05   0.3000000000E-03  -0.7754041826E-05  -0.7754041826E-05   0.5283785977E+00   0.2195613599E+00   0.2195613599E+00  -0.1104771028E-02  -0.1104771028E-02   0.1405494286E-12   0.3088528096E+00
     1     2     3     4     5     6     7     8
     2     9    10     3     6    11    12     7
 VARIABLES = X,Y,Z,DU1,DU2,DU3,U1,U2,U3,S11,S22,S33,S12,S13,S23,SMISES
 ZONE, T="0.5000D-01" F=FEPOINT, I=   12 J=    2 ET=BRICK
   0.0000000000E+00  -0.2468023560E-06  -0.2468023560E-06   0.0000000000E+00  -0.1623239049E-06  -0.1623239049E-06   0.0000000000E+00  -0.8447845111E-07  -0.8447845111E-07   0.2575645096E-01  -0.7987566596E-02  -0.7987566596E-02   0.2022307693E-02   0.2022307693E-02  -0.4771625221E-13   0.3484148644E-01
   0.1000034614E+01   0.1589121359E-04   0.1589121359E-04   0.1612344285E-04   0.7159618933E-05   0.7159618933E-05   0.1849102766E-04   0.8731594658E-05   0.8731594658E-05   0.3240238794E+00   0.1121573925E+00   0.1121573925E+00   0.2022307693E-02   0.2022307693E-02  -0.1512543661E-12   0.2123597703E+00
   0.1000034614E+01   0.9999841088E+00   0.1589121359E-04   0.1612344285E-04  -0.7159618932E-05   0.7159618932E-05   0.1849102766E-04  -0.8731594658E-05   0.8731594658E-05   0.3240238794E+00   0.1121573925E+00   0.1121573925E+00  -0.2022307693E-02   0.2022307693E-02   0.6270088053E-19   0.2123597703E+00
   0.0000000000E+00   0.1000000247E+01  -0.2468023560E-06   0.0000000000E+00   0.1623239049E-06  -0.1623239049E-06   0.0000000000E+00   0.8447845111E-07  -0.8447845111E-07   0.2575645096E-01  -0.7987566596E-02  -0.7987566596E-02  -0.2022307693E-02   0.2022307693E-02   0.1077057814E-18   0.3484148643E-01
   0.0000000000E+00  -0.2468023560E-06   0.1000000247E+01   0.0000000000E+00  -0.1623239049E-06   0.1623239049E-06   0.0000000000E+00  -0.8447845111E-07   0.8447845111E-07   0.2575645096E-01  -0.7987566596E-02  -0.7987566596E-02   0.2022307693E-02  -0.2022307693E-02  -0.2951246565E-18   0.3484148643E-01
   0.1000034614E+01   0.1589121359E-04   0.9999841088E+00   0.1612344285E-04   0.7159618932E-05  -0.7159618932E-05   0.1849102766E-04   0.8731594658E-05  -0.8731594658E-05   0.3240238794E+00   0.1121573925E+00   0.1121573925E+00   0.2022307693E-02  -0.2022307693E-02  -0.8854070449E-18   0.2123597703E+00
   0.1000034614E+01   0.9999841088E+00   0.9999841088E+00   0.1612344285E-04  -0.7159618932E-05  -0.7159618932E-05   0.1849102766E-04  -0.8731594657E-05  -0.8731594657E-05   0.3240238794E+00   0.1121573925E+00   0.1121573925E+00  -0.2022307693E-02  -0.2022307693E-02   0.1512538351E-12   0.2123597703E+00
   0.0000000000E+00   0.1000000247E+01   0.1000000247E+01   0.0000000000E+00   0.1623239049E-06   0.1623239049E-06   0.0000000000E+00   0.8447845110E-07   0.8447845110E-07   0.2575645096E-01  -0.7987566596E-02  -0.7987566596E-02  -0.2022307693E-02  -0.2022307693E-02   0.4771609056E-13   0.3484148643E-01
   0.2000500000E+01   0.3202922954E-04   0.3202922954E-04   0.1000000000E-03   0.1448156177E-04   0.1448156177E-04   0.4000000000E-03   0.1754766777E-04   0.1754766777E-04   0.6222913079E+00   0.2323023516E+00   0.2323023516E+00   0.2022307693E-02   0.2022307693E-02  -0.2547930948E-12   0.3900833466E+00
   0.2000500000E+01   0.9999679708E+00   0.3202922954E-04   0.1000000000E-03  -0.1448156177E-04   0.1448156177E-04   0.4000000000E-03  -0.1754766777E-04   0.1754766777E-04   0.6222913079E+00   0.2323023516E+00   0.2323023516E+00  -0.2022307693E-02   0.2022307693E-02  -0.1727787955E-18   0.3900833466E+00
   0.2000500000E+01   0.3202922954E-04   0.9999679708E+00   0.1000000000E-03   0.1448156177E-04  -0.1448156177E-04   0.4000000000E-03   0.1754766777E-04  -0.1754766777E-04   0.6222913079E+00   0.2323023516E+00   0.2323023516E+00   0.2022307693E-02  -0.2022307693E-02  -0.1048033000E-17   0.3900833466E+00
   0.2000500000E+01   0.9999679708E+00   0.9999679708E+00   0.1000000000E-03  -0.1448156177E-04  -0.1448156177E-04   0.4000000000E-03  -0.1754766777E-04  -0.1754766777E-04   0.6222913078E+00   0.2323023516E+00   0.2323023516E+00  -0.2022307693E-02  -0.2022307693E-02   0.2547918508E-12   0.3900833466E+00
     1     2     3     4     5     6     7     8
     2     9    10     3     6    11    12     7
 VARIABLES = X,Y,Z,DU1,DU2,DU3,U1,U2,U3,S11,S22,S33,S12,S13,S23,SMISES
 ZONE, T="0.6000D-01" F=FEPOINT, I=   12 J=    2 ET=BRICK
   0.0000000000E+00  -0.5502147669E-06  -0.5502147669E-06   0.0000000000E+00  -0.3034124109E-06  -0.3034124109E-06   0.0000000000E+00  -0.2468023560E-06  -0.2468023560E-06   0.4400866073E-01  -0.1103313085E-01  -0.1103313085E-01   0.3244664143E-02   0.3244664143E-02  -0.7338357131E-13   0.5677358291E-01
   0.1000057044E+01   0.2534220598E-04   0.2534220598E-04   0.2242992759E-04   0.9450992394E-05   0.9450992394E-05   0.3461447051E-04   0.1589121359E-04   0.1589121359E-04   0.3705181078E+00   0.1068456172E+00   0.1068456172E+00   0.3244664142E-02   0.3244664142E-02  -0.2387975235E-12   0.2644800550E+00
   0.1000057044E+01   0.9999746578E+00   0.2534220598E-04   0.2242992759E-04  -0.9450992394E-05   0.9450992394E-05   0.3461447050E-04  -0.1589121359E-04   0.1589121359E-04   0.3705181078E+00   0.1068456172E+00   0.1068456172E+00  -0.3244664143E-02   0.3244664142E-02   0.7706284255E-18   0.2644800550E+00
   0.0000000000E+00   0.1000000550E+01  -0.5502147669E-06   0.0000000000E+00   0.3034124109E-06  -0.3034124109E-06   0.0000000000E+00   0.2468023560E-06  -0.2468023560E-06   0.4400866073E-01  -0.1103313085E-01  -0.1103313085E-01  -0.3244664143E-02   0.3244664143E-02   0.7840871022E-18   0.5677358291E-01
   0.0000000000E+00  -0.5502147669E-06   0.1000000550E+01   0.0000000000E+00  -0.3034124109E-06   0.3034124109E-06   0.0000000000E+00  -0.2468023560E-06   0.2468023560E-06   0.4400866073E-01  -0.1103313085E-01  -0.1103313085E-01   0.3244664143E-02  -0.3244664143E-02   0.1867529985E-18   0.5677358291E-01
   0.1000057044E+01   0.2534220598E-04   0.9999746578E+00   0.2242992759E-04   0.9450992394E-05  -0.9450992394E-05   0.3461447050E-04   0.1589121359E-04  -0.1589121359E-04   0.3705181078E+00   0.1068456172E+00   0.1068456172E+00   0.3244664142E-02  -0.3244664143E-02  -0.7624632007E-18   0.2644800550E+00
   0.1000057044E+01   0.9999746578E+00   0.9999746578E+00   0.2242992759E-04  -0.9450992393E-05  -0.9450992393E-05   0.3461447050E-04  -0.1589121359E-04  -0.1589121359E-04   0.3705181078E+00   0.1068456172E+00   0.1068456172E+00  -0.3244664143E-02  -0.3244664143E-02   0.2387979228E-12   0.2644800550E+00
   0.0000000000E+00   0.1000000550E+01   0.1000000550E+01   0.0000000000E+00   0.3034124109E-06   0.3034124109E-06   0.0000000000E+00   0.2468023560E-06   0.2468023560E-06   0.4400866073E-01  -0.1103313085E-01  -0.1103313085E-01  -0.3244664143E-02  -0.3244664143E-02   0.7338450003E-13   0.5677358290E-01
   0.2000600000E+01   0.5123462674E-04   0.5123462674E-04   0.1000000000E-03   0.1920539720E-04   0.1920539720E-04   0.5000000000E-03   0.3202922954E-04   0.3202922954E-04   0.6970275549E+00   0.2247243653E+00   0.2247243653E+00   0.3244664142E-02   0.3244664142E-02  -0.4042131935E-12   0.4725038388E+00
   0.2000600000E+01   0.9999487654E+00   0.5123462673E-04   0.1000000000E-03  -0.1920539720E-04   0.1920539720E-04   0.5000000000E-03  -0.3202922954E-04   0.3202922954E-04   0.6970275548E+00   0.2247243653E+00   0.2247243653E+00  -0.3244664143E-02   0.3244664142E-02  -0.1904067712E-17   0.4725038387E+00
   0.2000600000E+01   0.5123462673E-04   0.9999487654E+00   0.1000000000E-03   0.1920539720E-04  -0.1920539720E-04   0.5000000000E-03   0.3202922954E-04  -0.3202922954E-04   0.6970275548E+00   0.2247243653E+00   0.2247243653E+00   0.3244664142E-02  -0.3244664143E-02  -0.2330365142E-17   0.4725038387E+00
   0.2000600000E+01   0.9999487654E+00   0.9999487654E+00   0.1000000000E-03  -0.1920539720E-04  -0.1920539720E-04   0.5000000000E-03  -0.3202922953E-04  -0.3202922953E-04   0.6970275548E+00   0.2247243653E+00   0.2247243653E+00  -0.3244664142E-02  -0.3244664142E-02   0.4042091628E-12   0.4725038387E+00
     1     2     3     4     5     6     7     8
     2     9    10     3     6    11    12     7
 VARIABLES = X,Y,Z,DU1,DU2,DU3,U1,U2,U3,S11,S22,S33,S12,S13,S23,SMISES
 ZONE, T="0.7000D-01" F=FEPOINT, I=   12 J=    2 ET=BRICK
   0.0000000000E+00  -0.1027628590E-05  -0.1027628590E-05   0.0000000000E+00  -0.4774138232E-06  -0.4774138232E-06   0.0000000000E+00  -0.5502147669E-06  -0.5502147669E-06   0.6903774920E-01  -0.1321683989E-01  -0.1321683989E-01   0.4749952413E-02   0.4749952413E-02  -0.1023361241E-12   0.8473777554E-01
   0.1000086184E+01   0.3687699297E-04   0.3687699297E-04   0.2913971425E-04   0.1153478699E-04   0.1153478699E-04   0.5704439809E-04   0.2534220598E-04   0.2534220598E-04   0.4109296098E+00   0.9231758984E-01   0.9231758984E-01   0.4749952412E-02   0.4749952412E-02  -0.3432625178E-12   0.3198151903E+00
   0.1000086184E+01   0.9999631230E+00   0.3687699297E-04   0.2913971425E-04  -0.1153478698E-04   0.1153478698E-04   0.5704439809E-04  -0.2534220598E-04   0.2534220598E-04   0.4109296098E+00   0.9231758983E-01   0.9231758983E-01  -0.4749952413E-02   0.4749952412E-02   0.1671286264E-17   0.3198151903E+00
   0.0000000000E+00   0.1000001028E+01  -0.1027628590E-05   0.0000000000E+00   0.4774138232E-06  -0.4774138232E-06   0.0000000000E+00   0.5502147669E-06  -0.5502147669E-06   0.6903774920E-01  -0.1321683988E-01  -0.1321683988E-01  -0.4749952413E-02   0.4749952412E-02   0.1155254050E-17   0.8473777554E-01
   0.0000000000E+00  -0.1027628590E-05   0.1000001028E+01   0.0000000000E+00  -0.4774138232E-06   0.4774138232E-06   0.0000000000E+00  -0.5502147669E-06   0.5502147669E-06   0.6903774920E-01  -0.1321683988E-01  -0.1321683988E-01   0.4749952412E-02  -0.4749952413E-02   0.1205458412E-18   0.8473777554E-01
   0.1000086184E+01   0.3687699297E-04   0.9999631230E+00   0.2913971425E-04   0.1153478698E-04  -0.1153478698E-04   0.5704439809E-04   0.2534220598E-04  -0.2534220598E-04   0.4109296098E+00   0.9231758983E-01   0.9231758983E-01   0.4749952412E-02  -0.4749952413E-02  -0.8281450033E-18   0.3198151903E+00
   0.1000086184E+01   0.9999631230E+00   0.9999631230E+00   0.2913971425E-04  -0.1153478698E-04  -0.1153478698E-04   0.5704439809E-04  -0.2534220598E-04  -0.2534220598E-04   0.4109296098E+00   0.9231758983E-01   0.9231758983E-01  -0.4749952413E-02  -0.4749952413E-02   0.3432627802E-12   0.3198151902E+00
   0.0000000000E+00   0.1000001028E+01   0.1000001028E+01   0.0000000000E+00   0.4774138232E-06   0.4774138232E-06   0.0000000000E+00   0.5502147668E-06   0.5502147668E-06   0.6903774919E-01  -0.1321683988E-01  -0.1321683988E-01  -0.4749952413E-02  -0.4749952413E-02   0.1023374555E-12   0.8473777553E-01
   0.2000700000E+01   0.7478161453E-04   0.7478161453E-04   0.1000000000E-03   0.2354698779E-04   0.2354698779E-04   0.6000000000E-03   0.5123462674E-04   0.5123462674E-04   0.7528214704E+00   0.1978520196E+00   0.1978520196E+00   0.4749952412E-02   0.4749952412E-02  -0.5841925712E-12   0.5553354432E+00
   0.2000700000E+01   0.9999252184E+00   0.7478161453E-04   0.1000000000E-03  -0.2354698779E-04   0.2354698779E-04   0.6000000000E-03  -0.5123462673E-04   0.5123462673E-04   0.7528214704E+00   0.1978520195E+00   0.1978520195E+00  -0.4749952412E-02   0.4749952412E-02  -0.2171114545E-17   0.5553354432E+00
   0.2000700000E+01   0.7478161453E-04   0.9999252184E+00   0.1000000000E-03   0.2354698779E-04  -0.2354698779E-04   0.6000000000E-03   0.5123462673E-04  -0.5123462673E-04   0.7528214704E+00   0.1978520195E+00   0.1978520195E+00   0.4749952412E-02  -0.4749952412E-02  -0.2580575832E-17   0.5553354432E+00
   0.2000700000E+01   0.9999252184E+00   0.9999252184E+00   0.1000000000E-03  -0.2354698779E-04  -0.2354698779E-04   0.6000000000E-03  -0.5123462673E-04  -0.5123462673E-04   0.7528214703E+00   0.1978520195E+00   0.1978520195E+00  -0.4749952412E-02  -0.4749952412E-02   0.5841874890E-12   0.5553354432E+00
     1     2     3     4     5     6     7     8
     2     9    10     3     6    11    12     7
 VARIABLES = X,Y,Z,DU1,DU2,DU3,U1,U2,U3,S11,S22,S33,S12,S13,S23,SMISES
 ZONE, T="0.8000D-01" F=FEPOINT, I=   12 J=    2 ET=BRICK
   0.0000000000E+00  -0.1681164370E-05  -0.1681164370E-05   0.0000000000E+00  -0.6535357803E-06  -0.6535357803E-06   0.0000000000E+00  -0.1027628590E-05  -0.1027628590E-05   0.1016692281E+00  -0.1362082307E-01  -0.1362082307E-01   0.6490477953E-02   0.6490477953E-02  -0.1323791905E-12   0.1185974069E+00
   0.1000122169E+01   0.5011285148E-04   0.5011285148E-04   0.3598463969E-04   0.1323585851E-04   0.1323585851E-04   0.8618411234E-04   0.3687699297E-04   0.3687699297E-04   0.4463755779E+00   0.7026602630E-01   0.7026602630E-01   0.6490477952E-02   0.6490477952E-02  -0.4596148618E-12   0.3777760137E+00
   0.1000122169E+01   0.9999498871E+00   0.5011285148E-04   0.3598463969E-04  -0.1323585851E-04   0.1323585851E-04   0.8618411234E-04  -0.3687699297E-04   0.3687699297E-04   0.4463755779E+00   0.7026602630E-01   0.7026602630E-01  -0.6490477953E-02   0.6490477952E-02   0.1609042181E-17   0.3777760137E+00
   0.0000000000E+00   0.1000001681E+01  -0.1681164370E-05   0.0000000000E+00   0.6535357802E-06  -0.6535357802E-06   0.0000000000E+00   0.1027628590E-05  -0.1027628590E-05   0.1016692281E+00  -0.1362082307E-01  -0.1362082307E-01  -0.6490477953E-02   0.6490477952E-02   0.1430918506E-17   0.1185974069E+00
   0.0000000000E+00  -0.1681164370E-05   0.1000001681E+01   0.0000000000E+00  -0.6535357802E-06   0.6535357802E-06   0.0000000000E+00  -0.1027628590E-05   0.1027628590E-05   0.1016692281E+00  -0.1362082307E-01  -0.1362082307E-01   0.6490477952E-02  -0.6490477953E-02  -0.7005189401E-19   0.1185974069E+00
   0.1000122169E+01   0.5011285148E-04   0.9999498871E+00   0.3598463969E-04   0.1323585851E-04  -0.1323585851E-04   0.8618411234E-04   0.3687699297E-04  -0.3687699297E-04   0.4463755779E+00   0.7026602630E-01   0.7026602630E-01   0.6490477952E-02  -0.6490477953E-02  -0.8464948122E-18   0.3777760137E+00
   0.1000122169E+01   0.9999498871E+00   0.9999498871E+00   0.3598463969E-04  -0.1323585851E-04  -0.1323585851E-04   0.8618411234E-04  -0.3687699297E-04  -0.3687699297E-04   0.4463755779E+00   0.7026602630E-01   0.7026602630E-01  -0.6490477953E-02  -0.6490477953E-02   0.4596161342E-12   0.3777760137E+00
   0.0000000000E+00   0.1000001681E+01   0.1000001681E+01   0.0000000000E+00   0.6535357802E-06   0.6535357802E-06   0.0000000000E+00   0.1027628590E-05   0.1027628590E-05   0.1016692281E+00  -0.1362082307E-01  -0.1362082307E-01  -0.6490477953E-02  -0.6490477953E-02   0.1323803886E-12   0.1185974069E+00